<VTKFile type="UnstructuredGrid" version="1.0">
<UnstructuredGrid>
<Piece NumberOfPoints="26466" NumberOfCells="8822">
<Points>
<DataArray type="Float64" NumberOfComponents="3" format="ascii">
0.124357 0.0126583 0.995696
0.122445 0.0251435 1
0.125 0 1
0.124357 0.0126583 0.995696
0.125 0 1
0.125 -1.1063e-14 0.987299
0.124357 0.0126649 0.980713
0.124357 0.0126583 0.995696
0.125 -1.1063e-14 0.987299
0.125 -1.16344e-14 0.974227
0.124357 0.0126649 0.980713
0.125 -1.1063e-14 0.987299
0.124352 0.0127083 0.966016
0.124357 0.0126649 0.980713
0.125 -1.16344e-14 0.974227
0.125 0 0
0.124404 0.0121912 0.00520946
0.125 -1.44548e-14 0.013747
0.125 -1.16344e-14 0.974227
0.125 -1.26553e-14 0.961478
0.124352 0.0127083 0.966016
0.125 -1.26553e-14 0.961478
0.125 -1.671e-14 0.949464
0.124344 0.0127906 0.951104
0.124352 0.0127083 0.966016
0.125 -1.26553e-14 0.961478
0.124344 0.0127906 0.951104
0.122507 0.0248419 0.972665
0.119485 0.0367201 0.96541
0.119454 0.0368207 0.980074
0.122507 0.0248419 0.972665
0.124357 0.0126649 0.980713
0.124352 0.0127083 0.966016
-0.0495981 0.114739 0.958136
-0.0380253 0.119076 0.965477
-0.0380253 0.119076 0.950985
-0.114107 -0.0510349 -2.528e-14
-0.118595 -0.0395006 0.00483085
-0.121919 -0.027581 -2.5317e-14
0.023085 0.12285 -2.53752e-14
0.0351084 0.119968 0.00482303
0.046788 0.115913 -2.53773e-14
-0.0138562 0.12423 0.00482521
-0.001517 0.124991 0.0133051
-0.00151737 0.124991 -2.53743e-14
0.124389 0.0123397 0.0201181
0.125 -1.44548e-14 0.013747
0.124404 0.0121912 0.00520946
0.122574 0.0245075 0.0134058
0.124389 0.0123397 0.0201181
0.124404 0.0121912 0.00520946
0.125 0 0
0.122619 0.0242828 -2.49223e-14
0.124404 0.0121912 0.00520946
0.122619 0.0242828 -2.49223e-14
0.122574 0.0245075 0.0134058
0.124404 0.0121912 0.00520946
0.119485 0.0367201 0.96541
0.115269 0.0483544 0.972356
0.119454 0.0368207 0.980074
0.122521 0.0247732 0.958179
0.124352 0.0127083 0.966016
0.124344 0.0127906 0.951104
0.124352 0.0127083 0.966016
0.122521 0.0247732 0.958179
0.122507 0.0248419 0.972665
0.122521 0.0247732 0.958179
0.119485 0.0367201 0.96541
0.122507 0.0248419 0.972665
0.119485 0.0367201 0.96541
0.122521 0.0247732 0.958179
0.119514 0.0366254 0.950824
0.119454 0.0368207 0.980074
0.122499 0.0248792 0.986802
0.122507 0.0248419 0.972665
0.122499 0.0248792 0.986802
0.124357 0.0126649 0.980713
0.122507 0.0248419 0.972665
0.122499 0.0248792 0.986802
0.122445 0.0251435 1
0.124357 0.0126583 0.995696
0.124357 0.0126649 0.980713
0.122499 0.0248792 0.986802
0.124357 0.0126583 0.995696
0.0230858 0.12285 0.0273903
0.0351087 0.119968 0.0343665
0.0351091 0.119968 0.0197775
-0.124962 -0.00306333 0.900495
-0.124048 -0.0153989 0.907697
-0.124962 -0.00306294 0.9149
-0.124048 -0.0153989 0.907697
-0.124962 -0.00306333 0.900495
-0.124048 -0.0153994 0.893296
-0.124962 -0.00306333 0.900495
-0.124962 -0.0030637 0.886099
-0.124048 -0.0153994 0.893296
-0.124962 -0.00306294 0.9149
-0.124654 0.00930072 0.907698
-0.124962 -0.00306333 0.900495
-0.116479 0.0453603 0.972482
-0.120391 0.0336315 0.965477
-0.120391 0.0336317 0.98009
-0.116479 0.0453605 0.986616
-0.116479 0.0453603 0.972482
-0.120391 0.0336317 0.98009
-0.049598 0.114739 0.943731
-0.0606864 0.10928 0.950985
-0.0495981 0.114739 0.958136
-0.0380253 0.119076 0.950985
-0.049598 0.114739 0.943731
-0.0495981 0.114739 0.958136
-0.0138833 0.124227 0.936535
-0.0260814 0.122249 0.94373
-0.0138834 0.124227 0.950984
-0.0495978 0.114739 0.986616
-0.0606862 0.10928 0.995059
-0.0495975 0.114739 1
-0.071182 0.102753 0.958136
-0.0606864 0.10928 0.950985
-0.0711819 0.102753 0.943731
-0.114107 -0.0510352 1
-0.118595 -0.039501 0.995054
-0.114106 -0.0510365 0.986613
-0.121919 -0.0275838 0.958135
-0.118594 -0.0395028 0.965474
-0.121919 -0.0275831 0.972481
-0.118595 -0.039501 0.995054
-0.118594 -0.0395019 0.980087
-0.114106 -0.0510365 0.986613
-0.118594 -0.0395019 0.980087
-0.121919 -0.0275831 0.972481
-0.118594 -0.0395028 0.965474
-0.0760704 -0.0991882 0.99504
-0.0658546 -0.106246 1
-0.0855315 -0.0911557 1
-0.0855293 -0.0911578 0.986609
-0.0760704 -0.0991882 0.99504
-0.0855315 -0.0911557 1
-0.108497 -0.0620757 0.980085
-0.108496 -0.0620769 0.965472
-0.10182 -0.07251 0.972477
-0.124963 -0.00305945 -2.53408e-14
-0.124653 0.00930363 0.00482744
-0.123124 0.0215749 -2.53554e-14
-0.0495843 0.114745 0.0133057
-0.0380078 0.119082 0.00482551
-0.0495844 0.114745 -2.53737e-14
-0.071174 0.102758 -2.5373e-14
-0.0606759 0.109286 0.00482567
-0.0495844 0.114745 -2.53737e-14
-0.0495843 0.114745 0.0133057
-0.0606759 0.109286 0.00482567
-0.0606759 0.109286 0.019781
-0.0606759 0.109286 0.00482567
-0.0495843 0.114745 0.0133057
-0.0495844 0.114745 -2.53737e-14
-0.00151737 0.124991 -2.53743e-14
0.0108369 0.124529 0.00482455
0.023085 0.12285 -2.53752e-14
0.0108369 0.124529 0.00482455
-0.00151737 0.124991 -2.53743e-14
-0.001517 0.124991 0.0133051
0.0651554 -0.106676 0.893203
0.0651702 -0.106667 0.878816
0.0756224 -0.0995302 0.88599
0.124343 -0.0128037 0.28557
0.125 -3.50423e-11 0.278428
0.125 -3.50643e-11 0.292715
0.125 -3.50822e-11 0.307
0.125 -3.50966e-11 0.321284
0.124343 -0.0128029 0.314141
0.0304383 -0.121237 0.771269
0.0424904 -0.117557 0.76411
0.0424864 -0.117558 0.778423
-0.0760376 -0.0992134 0.749817
-0.06581 -0.106273 0.742663
-0.0658108 -0.106273 0.756971
-0.108488 -0.0620915 0.692623
-0.101807 -0.0725277 0.699769
-0.108488 -0.0620913 0.706916
-0.0760353 -0.0992151 0.649757
-0.0855033 -0.0911821 0.6569
-0.0855033 -0.0911822 0.642614
-0.0760352 -0.0992151 0.635472
-0.0760353 -0.0992151 0.649757
-0.0855033 -0.0911822 0.642614
-0.0434724 -0.117197 0.714061
-0.0315785 -0.120945 0.721209
-0.0434732 -0.117197 0.72836
-0.0855033 -0.0911821 0.6569
-0.0941212 -0.0822569 0.649757
-0.0855033 -0.0911822 0.642614
0.125 -3.51327e-11 0.606903
0.125 -3.51276e-11 0.621185
0.124343 -0.0128022 0.614044
0.124341 -0.0128165 0.185547
0.125 -3.46612e-11 0.178416
0.125 -3.47559e-11 0.192701
0.124321 -0.0130129 0.0574055
0.125 -2.95961e-11 0.0510291
0.125 -3.13023e-11 0.0648725
-0.121917 -0.0275917 0.514079
-0.124047 -0.015403 0.521219
-0.124047 -0.015403 0.506939
0.102065 -0.0721649 0.135338
0.108899 -0.0613684 0.142536
0.102078 -0.0721461 0.149669
0.108899 -0.0613684 0.142536
0.108909 -0.0613494 0.156856
0.102078 -0.0721461 0.149669
0.115399 0.0480418 -2.53065e-14
0.119589 0.0363791 0.00480998
0.122619 0.0242828 -2.49223e-14
0.119589 0.0363791 0.00480998
0.122574 0.0245075 0.0134058
0.122619 0.0242828 -2.49223e-14
0.11538 0.0480884 0.0132814
0.119589 0.0363791 0.00480998
0.115399 0.0480418 -2.53065e-14
0.122445 0.0251435 1
0.119396 0.0370083 0.99502
0.115172 0.0485843 1
0.119396 0.0370083 0.99502
0.122445 0.0251435 1
0.122499 0.0248792 0.986802
0.119454 0.0368207 0.980074
0.119396 0.0370083 0.99502
0.122499 0.0248792 0.986802
0.115221 0.0484674 0.986516
0.119454 0.0368207 0.980074
0.115269 0.0483544 0.972356
0.109914 0.0595316 0.979911
0.115221 0.0484674 0.986516
0.115269 0.0483544 0.972356
0.119454 0.0368207 0.980074
0.115221 0.0484674 0.986516
0.119396 0.0370083 0.99502
0.115221 0.0484674 0.986516
0.115172 0.0485843 1
0.119396 0.0370083 0.99502
0.109879 0.0595952 0.994866
0.103512 0.0700731 1
0.115172 0.0485843 1
0.109914 0.0595316 0.979911
0.109879 0.0595952 0.994866
0.115221 0.0484674 0.986516
0.109879 0.0595952 0.994866
0.115172 0.0485843 1
0.115221 0.0484674 0.986516
0.122535 0.0247003 0.943494
0.124344 0.0127906 0.951104
0.124347 0.0127606 0.935908
0.124344 0.0127906 0.951104
0.122535 0.0247003 0.943494
0.122521 0.0247732 0.958179
0.122535 0.0247003 0.943494
0.119514 0.0366254 0.950824
0.122521 0.0247732 0.958179
0.122535 0.0247003 0.943494
0.124347 0.0127606 0.935908
0.122526 0.0247463 0.928813
-0.105287 0.0673764 0.214016
-0.0981168 0.0774474 0.221174
-0.0981168 0.0774474 0.206857
0.0878734 0.0889003 -2.53879e-14
0.0962356 0.0797729 0.00479939
0.103656 0.0698597 -2.53842e-14
0.0878734 0.0889003 -2.53879e-14
0.0878759 0.0888978 0.0132915
0.0962356 0.0797729 0.00479939
0.0878759 0.0888978 0.0132915
0.0962325 0.0797766 0.0197526
0.0962356 0.0797729 0.00479939
0.0786559 0.0971506 0.00481262
0.0878734 0.0889003 -2.53879e-14
0.0686682 0.104449 -2.53817e-14
0.0878734 0.0889003 -2.53879e-14
0.0786559 0.0971506 0.00481262
0.0878759 0.0888978 0.0132915
0.0786559 0.0971506 0.00481262
0.0786566 0.0971501 0.0197654
0.0878759 0.0888978 0.0132915
-0.0380088 0.119081 0.421256
-0.0380087 0.119081 0.435537
-0.0260608 0.122253 0.428396
-0.0380087 0.119081 0.449817
-0.0380087 0.119081 0.435537
-0.0495851 0.114745 0.442677
0.0230808 0.122851 0.385551
0.0230808 0.122851 0.371268
0.0108336 0.12453 0.37841
-0.0138579 0.124229 0.406974
-0.0138579 0.124229 0.392692
-0.0260608 0.122253 0.399833
-0.124653 0.00930101 0.922112
-0.124962 -0.00306294 0.9149
-0.124962 -0.00306253 0.929314
-0.124962 -0.00306294 0.9149
-0.124653 0.00930101 0.922112
-0.124654 0.00930072 0.907698
-0.124653 0.00930101 0.922112
-0.123125 0.0215721 0.914901
-0.124654 0.00930072 0.907698
-0.123125 0.0215721 0.914901
-0.124653 0.00930101 0.922112
-0.123124 0.0215723 0.929315
-0.124048 -0.0153979 0.936537
-0.124962 -0.0030621 0.943731
-0.124962 -0.00306253 0.929314
-0.124962 -0.0030621 0.943731
-0.124048 -0.0153979 0.936537
-0.124048 -0.0153973 0.950984
-0.124963 -0.00306166 0.958136
-0.124962 -0.0030621 0.943731
-0.124048 -0.0153973 0.950984
-0.124048 -0.0153984 0.922111
-0.124048 -0.0153979 0.936537
-0.124962 -0.00306253 0.929314
-0.124048 -0.0153989 0.907697
-0.124048 -0.0153984 0.922111
-0.124962 -0.00306294 0.9149
-0.124962 -0.00306294 0.9149
-0.124048 -0.0153984 0.922111
-0.124962 -0.00306253 0.929314
-0.124048 -0.0153989 0.907697
-0.121918 -0.027586 0.914899
-0.124048 -0.0153984 0.922111
-0.121918 -0.0275846 0.94373
-0.121919 -0.0275838 0.958135
-0.124048 -0.0153973 0.950984
-0.124048 -0.0153979 0.936537
-0.121918 -0.0275846 0.94373
-0.124048 -0.0153973 0.950984
-0.124963 -0.0030601 1
-0.124963 -0.00306071 0.986615
-0.124048 -0.0153955 0.995056
-0.124653 0.00930198 0.965477
-0.124963 -0.00306166 0.958136
-0.124963 -0.0030612 0.972482
-0.124963 -0.00306166 0.958136
-0.124048 -0.0153967 0.965476
[...]
<PointData Scalars="View Factor" >
<DataArray type="Float64" Name="View Factor" NumberOfComponents="1" format="ascii">
0.26305
0.26305
0.26305
0.368929
0.368929
0.368929
0.649624
0.649624
0.649624
0.579313
0.579313
0.579313
0.773954
0.773954
0.773954
0.653565
0.653565
0.653565
0.682346
0.682346
0.682346
0.699882
0.699882
0.699882
0.572784
0.572784
0.572784
0.466765
0.466765
0.466765
0.409008
0.409008
0.409008
0.684695
0.684695
0.684695
0.68246
0.68246
0.68246
0.680098
0.680098
0.680098
0.551424
0.551424
0.551424
0.364704
0.364704
0.364704
0.330811
0.330811
0.330811
0.477952
0.477952
0.477952
0.590269
0.590269
0.590269
0.538918
0.538918
0.538918
0.507513
0.507513
0.507513
0.642609
0.642609
0.642609
0.859308
0.859308
0.859308
0.884004
0.884004
0.884004
0.929837
0.929837
0.929837
1.12105
1.12105
1.12105
0.775223
0.775223
0.775223
0.696361
0.696361
0.696361
0.471406
0.471406
0.471406
0.563888
0.563888
0.563888
0.593827
0.593827
0.593827
0.523888
0.523888
0.523888
0.605527
0.605527
0.605527
0.526489
0.526489
0.526489
0.690402
0.690402
0.690402
0.686331
0.686331
0.686331
0.70915
0.70915
0.70915
0.94623
0.94623
0.94623
0.846588
0.846588
0.846588
0.793011
0.793011
0.793011
0.816068
0.816068
0.816068
0.968939
0.968939
0.968939
0.998688
0.998688
0.998688
0.719719
0.719719
0.719719
0.763776
0.763776
0.763776
0.702052
0.702052
0.702052
0.698854
0.698854
0.698854
0.501577
0.501577
0.501577
0.551932
0.551932
0.551932
0.819013
0.819013
0.819013
0.892162
0.892162
0.892162
0.781657
0.781657
0.781657
0.460908
0.460908
0.460908
0.465173
0.465173
0.465173
0.442477
0.442477
0.442477
0.660186
0.660186
0.660186
0.663623
0.663623
0.663623
0.540481
0.540481
0.540481
0.643031
0.643031
0.643031
0.503402
0.503402
0.503402
0.296397
0.296397
0.296397
0.473767
0.473767
0.473767
0.644189
0.644189
0.644189
0.557967
0.557967
0.557967
0.426672
0.426672
0.426672
0.511656
0.511656
0.511656
0.767159
0.767159
0.767159
0.686463
0.686463
0.686463
1.06151
1.06151
1.06151
0.826768
0.826768
0.826768
1.12453
1.12453
1.12453
1.09673
1.09673
1.09673
0.819783
0.819783
0.819783
0.527825
0.527825
0.527825
0.39602
0.39602
0.39602
0.600899
0.600899
0.600899
0.83274
0.83274
0.83274
0.657789
0.657789
0.657789
0.516806
0.516806
0.516806
0.788538
0.788538
0.788538
0.849907
0.849907
0.849907
0.51845
0.51845
0.51845
0.776282
0.776282
0.776282
0.703983
0.703983
0.703983
0.930614
0.930614
0.930614
0.705223
0.705223
0.705223
0.537465
0.537465
0.537465
0.915542
0.915542
0.915542
0.853538
0.853538
0.853538
0.85095
0.85095
0.85095
0.81261
0.81261
0.81261
1.25534
1.25534
1.25534
1.06263
1.06263
1.06263
0.934949
0.934949
0.934949
0.992147
0.992147
0.992147
0.961233
0.961233
0.961233
0.898543
0.898543
0.898543
1.05478
1.05478
1.05478
0.808541
0.808541
0.808541
0.898481
0.898481
0.898481
0.89123
0.89123
0.89123
1.01119
1.01119
1.01119
1.05591
1.05591
1.05591
0.986929
0.986929
0.986929
1.11003
1.11003
1.11003
1.24589
1.24589
1.24589
1.19007
1.19007
1.19007
0.934957
0.934957
0.934957
0.666631
0.666631
0.666631
1.10958
1.10958
1.10958
1.20263
1.20263
1.20263
1.10832
1.10832
1.10832
0.704731
0.704731
0.704731
1.04857
1.04857
1.04857
1.05731
1.05731
1.05731
1.33955
1.33955
1.33955
1.10618
1.10618
1.10618
0.936468
0.936468
0.936468
0.664128
0.664128
0.664128
0.723793
0.723793
0.723793
0.912637
0.912637
0.912637
0.729281
0.729281
0.729281
0.880077
0.880077
0.880077
0.845534
0.845534
0.845534
0.914269
0.914269
0.914269
1.02669
1.02669
1.02669
1.03897
1.03897
1.03897
0.927536
0.927536
0.927536
1.11447
1.11447
1.11447
0.972397
0.972397
0.972397
0.926148
0.926148
0.926148
0.959966
0.959966
0.959966
0.776974
0.776974
0.776974
0.485441
0.485441
0.485441
0.762878
0.762878
0.762878
0.700041
0.700041
0.700041
0.802046
0.802046
0.802046
0.799988
0.799988
0.799988
0.992415
0.992415
0.992415
0.968021
0.968021
0.968021
0.722776
0.722776
0.722776
0.955804
0.955804
0.955804
0.875848
0.875848
0.875848
0.565141
0.565141
0.565141
0.511778
0.511778
0.511778
0.536172
0.536172
0.536172
0.570682
0.570682
0.570682
0.606717
0.606717
0.606717
0.488768
0.488768
0.488768
0.562765
0.562765
0.562765
0.747423
0.747423
0.747423
1.03908
1.03908
1.03908
0.941865
0.941865
0.941865
0.820179
0.820179
0.820179
0.923413
0.923413
0.923413
0.982636
0.982636
0.982636
1.16776
1.16776
1.16776
1.17785
1.17785
1.17785
1.2041
1.2041
1.2041
0.703384
0.703384
0.703384
0.934677
0.934677
0.934677
0.678572
0.678572
0.678572
0.833821
0.833821
0.833821
0.660885
0.660885
0.660885
0.653435
0.653435
0.653435
0.718488
0.718488
0.718488
0.72087
0.72087
0.72087
0.551044
0.551044
0.551044
0.632863
0.632863
0.632863
0.516705
0.516705
0.516705
0.667987
0.667987
0.667987
0.651999
0.651999
0.651999
0.403018
0.403018
0.403018
0.689824
0.689824
0.689824
0.800829
0.800829
0.800829
0.611883
0.611883
0.611883
0.497586
0.497586
0.497586
0.475762
0.475762
0.475762
0.479998
0.479998
0.479998
0.604574
0.604574
0.604574
0.828841
0.828841
0.828841
0.617993
0.617993
0.617993
0.604382
0.604382
0.604382
0.663917
0.663917
0.663917
0.582612
0.582612
0.582612
0.505759
0.505759
0.505759
0.774539
0.774539
0.774539
0.669028
0.669028
0.669028
0.585014
0.585014
0.585014
0.589739
0.589739
0.589739
1.0104
1.0104
1.0104
0.880985
0.880985
0.880985
0.766063
0.766063
0.766063
0.813925
0.813925
0.813925
0.839557
0.839557
0.839557
0.870816
0.870816
0.870816
0.917076
0.917076
0.917076
0.843541
0.843541
0.843541
0.898747
0.898747
0.898747
0.95461
0.95461
0.95461
0.606263
0.606263
0.606263
0.491869
0.491869
0.491869
0.664837
0.664837
0.664837
0.619154
0.619154
0.619154
0.507582
0.507582
0.507582
0.749856
0.749856
0.749856
0.900662
0.900662
0.900662
0.727741
0.727741
0.727741
1.1064
1.1064
1.1064
0.709526
0.709526
0.709526
0.98183
0.98183
0.98183
0.885994
0.885994
0.885994
1.02981
1.02981
1.02981
0.799512
0.799512
0.799512
0.687711
0.687711
0.687711
1.06622
1.06622
1.06622
1.16027
1.16027
1.16027
0.895281
0.895281
0.895281
0.872302
0.872302
0.872302
0.838024
0.838024
0.838024
1.05411
1.05411
1.05411
1.18203
1.18203
1.18203
0.963584
0.963584
0.963584
1.04237
1.04237
1.04237
0.926004
0.926004
0.926004
0.477169
0.477169
0.477169
0.770727
0.770727
0.770727
0.722962
0.722962
0.722962
0.766166
0.766166
0.766166
0.833686
0.833686
0.833686
0.992912
0.992912
0.992912
0.933242
0.933242
0.933242
0.758409
0.758409
0.758409
0.703696
0.703696
0.703696
0.567934
0.567934
0.567934
0.702995
0.702995
0.702995
0.594404
0.594404
0.594404
0.466124
0.466124
0.466124
0.535009
0.535009
0.535009
0.604771
0.604771
0.604771
0.545069
0.545069
0.545069
0.430666
0.430666
0.430666
0.594697
0.594697
0.594697
0.924582
0.924582
0.924582
1.29652
1.29652
1.29652
0.899956
0.899956
0.899956
0.870327
0.870327
0.870327
0.790863
0.790863
0.790863
0.744637
0.744637
0.744637
0.789914
0.789914
0.789914
1.09344
1.09344
1.09344
0.948149
0.948149
0.948149
0.687406
0.687406
0.687406
0.998988
0.998988
0.998988
1.00946
1.00946
1.00946
0.663903
0.663903
0.663903
0.923356
0.923356
0.923356
0.603969
0.603969
0.603969
0.560146
0.560146
0.560146
0.569913
0.569913
0.569913
0.527063
0.527063
0.527063
0.686237
0.686237
0.686237
1.0839
1.0839
1.0839
1.0156
1.0156
1.0156
0.936056
0.936056
0.936056
0.941933
0.941933
0.941933
0.830427
0.830427
0.830427
0.740231
0.740231
0.740231
0.952254
0.952254
0.952254
0.912762
0.912762
0.912762
1.03697
1.03697
1.03697
1.00957
1.00957
1.00957
1.05629
1.05629
1.05629
0.952261
0.952261
0.952261
0.949516
0.949516
0.949516
0.847501
0.847501
0.847501
0.828091
0.828091
0.828091
0.854668
0.854668
0.854668
0.89206
0.89206
0.89206
0.913724
0.913724
0.913724
0.96794
0.96794
0.96794
1.03336
1.03336
1.03336
0.884154
0.884154
0.884154
0.893641
0.893641
0.893641
0.847037
0.847037
0.847037
0.924082
0.924082
0.924082
0.765467
0.765467
0.765467
1.0793
1.0793
1.0793
1.1039
1.1039
1.1039
1.10962
1.10962
1.10962
1.12769
1.12769
1.12769
0.953695
0.953695
0.953695
1.18168
1.18168
1.18168
1.30455
1.30455
1.30455
1.09859
1.09859
1.09859
1.10668
1.10668
1.10668
1.13795
1.13795
1.13795
1.15512
1.15512
1.15512
1.07508
1.07508
1.07508
1.18019
1.18019
1.18019
1.26134
1.26134
1.26134
1.1938
1.1938
1.1938
1.12767
1.12767
1.12767
1.20018
1.20018
1.20018
1.13236
1.13236
1.13236
1.08157
1.08157
1.08157
0.987354
0.987354
0.987354
1.1459
1.1459
1.1459
0.762383
0.762383
0.762383
0.760145
0.760145
0.760145
0.914527
0.914527
0.914527
1.03076
1.03076
1.03076
1.01229
1.01229
1.01229
1.00053
1.00053
1.00053
0.930222
0.930222
0.930222
0.764298
0.764298
0.764298
0.957422
0.957422
0.957422
0.898022
0.898022
0.898022
0.880694
0.880694
0.880694
1.07245
1.07245
1.07245
1.03057
1.03057
1.03057
0.875381
0.875381
0.875381
1.10049
1.10049
1.10049
0.951677
0.951677
0.951677
0.974812
0.974812
0.974812
0.846723
0.846723
0.846723
0.858784
0.858784
0.858784
0.889847
0.889847
0.889847
0.871097
0.871097
0.871097
0.765398
0.765398
0.765398
0.82489
0.82489
0.82489
0.895176
0.895176
0.895176
0.941744
0.941744
0.941744
1.0535
1.0535
1.0535
0.978657
0.978657
0.978657
0.733752
0.733752
0.733752
0.599267
0.599267
0.599267
0.614421
0.614421
0.614421
0.716075
0.716075
0.716075
0.622306
0.622306
0.622306
0.526591
0.526591
0.526591
0.477965
0.477965
0.477965
0.491909
0.491909
0.491909
0.611937
0.611937
0.611937
0.564813
0.564813
0.564813
0.622813
0.622813
0.622813
0.875909
0.875909
0.875909
0.936078
0.936078
0.936078
0.873986
0.873986
0.873986
1.09832
1.09832
1.09832
0.916695
0.916695
0.916695
0.736739
0.736739
0.736739
0.706793
0.706793
0.706793
1.09442
1.09442
1.09442
0.891071
0.891071
0.891071
0.945456
0.945456
0.945456
0.925131
0.925131
0.925131
0.65393
0.65393
0.65393
0.618111
0.618111
0.618111
0.410176
0.410176
0.410176
0.494999
0.494999
0.494999
0.98602
0.98602
0.98602
0.901895
0.901895
0.901895
1.05003
1.05003
1.05003
0.888043
0.888043
0.888043
1.01512
1.01512
1.01512
0.897287
0.897287
0.897287
0.885412
0.885412
0.885412
1.13268
1.13268
1.13268
1.18287
1.18287
1.18287
1.17149
1.17149
1.17149
1.09566
1.09566
1.09566
0.947293
0.947293
0.947293
0.884823
0.884823
0.884823
0.680679
0.680679
0.680679
0.838676
0.838676
0.838676
0.8745
0.8745
0.8745
0.99294
0.99294
0.99294
1.03015
1.03015
1.03015
0.763158
0.763158
0.763158
0.859908
0.859908
0.859908
0.889312
0.889312
0.889312
0.853177
0.853177
0.853177
0.612018
0.612018
0.612018
0.64687
0.64687
0.64687
1.08238
1.08238
1.08238
0.808961
0.808961
0.808961
1.13229
1.13229
1.13229
1.24851
1.24851
1.24851
1.17837
1.17837
1.17837
1.04557
1.04557
1.04557
0.85201
0.85201
0.85201
0.994704
0.994704
0.994704
1.10122
1.10122
1.10122
1.07055
1.07055
1.07055
1.07059
1.07059
1.07059
0.962647
0.962647
0.962647
1.12409
1.12409
1.12409
1.02408
1.02408
1.02408
0.755977
0.755977
0.755977
0.860538
0.860538
0.860538
0.880005
0.880005
0.880005
0.791044
0.791044
0.791044
0.611771
0.611771
0.611771
0.549692
0.549692
0.549692
0.614247
0.614247
0.614247
0.764981
0.764981
0.764981
0.710822
0.710822
0.710822
0.661585
0.661585
0.661585
0.580007
0.580007
0.580007
0.79489
0.79489
0.79489
0.793922
0.793922
0.793922
0.563769
0.563769
0.563769
0.869531
0.869531
0.869531
0.694516
0.694516
0.694516
0.506455
0.506455
0.506455
0.744126
0.744126
0.744126
0.736993
0.736993
0.736993
1.09243
1.09243
1.09243
1.06079
1.06079
1.06079
0.844929
0.844929
0.844929
0.786405
0.786405
0.786405
0.900705
0.900705
0.900705
0.747223
0.747223
0.747223
0.987112
0.987112
0.987112
1.15858
1.15858
1.15858
1.13567
1.13567
1.13567
0.994035
0.994035
0.994035
1.00543
1.00543
1.00543
1.07822
1.07822
1.07822
1.2413
1.2413
1.2413
0.998175
0.998175
0.998175
1.14413
1.14413
1.14413
0.610799
0.610799
0.610799
0.73909
0.73909
0.73909
0.604989
0.604989
0.604989
0.697389
0.697389
0.697389
0.543312
0.543312
0.543312
0.759328
0.759328
0.759328
0.675449
0.675449
0.675449
0.763175
0.763175
0.763175
0.727656
0.727656
0.727656
0.956435
0.956435
0.956435
0.861876
0.861876
0.861876
0.869141
0.869141
0.869141
0.649413
0.649413
0.649413
0.955898
0.955898
0.955898
1.16978
1.16978
1.16978
0.944133
0.944133
0.944133
0.943239
0.943239
0.943239
0.922207
0.922207
0.922207
0.595889
0.595889
0.595889
0.750632
0.750632
0.750632
0.908309
0.908309
0.908309
0.910993
0.910993
0.910993
0.964516
0.964516
0.964516
1.02835
1.02835
1.02835
1.02958
1.02958
1.02958
0.944081
0.944081
0.944081
1.0226
1.0226
1.0226
0.686955
0.686955
0.686955
0.583933
0.583933
0.583933
0.64509
0.64509
0.64509
0.638842
0.638842
0.638842
0.744545
0.744545
0.744545
0.816909
0.816909
0.816909
0.836763
0.836763
0.836763
0.506171
0.506171
0.506171
0.27024
0.27024
0.27024
0.466647
0.466647
0.466647
0.569958
0.569958
0.569958
0.564536
0.564536
0.564536
0.547454
0.547454
0.547454
0.639889
0.639889
0.639889
0.585623
0.585623
0.585623
0.536057
0.536057
0.536057
1.00539
1.00539
1.00539
1.01123
1.01123
1.01123
1.06795
1.06795
1.06795
1.08419
1.08419
1.08419
0.939404
0.939404
0.939404
1.04188
1.04188
1.04188
0.947316
0.947316
0.947316
1.11565
1.11565
1.11565
0.917258
0.917258
0.917258
1.02366
1.02366
1.02366
1.08786
1.08786
1.08786
1.02521
1.02521
1.02521
0.954934
0.954934
0.954934
0.942158
0.942158
0.942158
0.993108
0.993108
0.993108
1.00127
1.00127
1.00127
1.15614
1.15614
1.15614
1.04694
1.04694
1.04694
1.10767
1.10767
1.10767
0.938992
0.938992
0.938992
0.722074
0.722074
0.722074
0.945004
0.945004
0.945004
0.923168
0.923168
0.923168
0.892312
0.892312
0.892312
0.872492
0.872492
0.872492
0.960813
0.960813
0.960813
0.825285
0.825285
0.825285
0.895108
0.895108
0.895108
0.938425
0.938425
0.938425
0.848124
0.848124
0.848124
0.969268
0.969268
0.969268
0.953368
0.953368
0.953368
0.956042
0.956042
0.956042
1.0976
1.0976
1.0976
0.883096
0.883096
0.883096
0.944063
0.944063
0.944063
1.11079
1.11079
1.11079
1.23138
1.23138
1.23138
1.22611
1.22611
1.22611
1.09803
1.09803
1.09803
0.96839
0.96839
0.96839
0.862672
0.862672
0.862672
0.478738
0.478738
0.478738
0.390652
0.390652
0.390652
0.494839
0.494839
0.494839
0.799028
0.799028
0.799028
0.645847
0.645847
0.645847
0.914569
0.914569
0.914569
0.668211
0.668211
0.668211
0.783691
0.783691
0.783691
0.901746
0.901746
0.901746
0.69898
0.69898
0.69898
0.541868
0.541868
0.541868
0.464259
0.464259
0.464259
0.643906
0.643906
0.643906
0.914105
0.914105
0.914105
1.0155
1.0155
1.0155
0.968644
0.968644
0.968644
0.915214
0.915214
0.915214
0.764603
0.764603
0.764603
0.684609
0.684609
0.684609
0.923631
0.923631
0.923631
0.883661
0.883661
0.883661
1.12194
1.12194
1.12194
1.01819
1.01819
1.01819
0.880692
0.880692
0.880692
0.92449
0.92449
0.92449
1.08154
1.08154
1.08154
0.879976
0.879976
0.879976
1.03978
1.03978
1.03978
0.945079
0.945079
0.945079
0.97116
0.97116
0.97116
1.01991
1.01991
1.01991
1.0265
1.0265
1.0265
1.10357
1.10357
1.10357
1.03291
1.03291
1.03291
0.879394
0.879394
0.879394
0.906651
0.906651
0.906651
0.855683
0.855683
0.855683
0.667011
0.667011
0.667011
0.531051
0.531051
0.531051
0.58571
0.58571
0.58571
0.604525
0.604525
0.604525
0.751546
0.751546
0.751546
1.01022
1.01022
1.01022
0.808958
0.808958
0.808958
0.934429
0.934429
0.934429
0.914071
0.914071
0.914071
0.777976
0.777976
0.777976
0.846097
0.846097
0.846097
0.704549
0.704549
0.704549
0.736132
0.736132
0.736132
0.819947
0.819947
0.819947
0.838571
0.838571
0.838571
0.573342
0.573342
0.573342
0.596189
0.596189
0.596189
0.558864
0.558864
0.558864
0.561056
0.561056
0.561056
0.571916
0.571916
0.571916
0.605502
0.605502
0.605502
0.456992
0.456992
0.456992
0.362613
0.362613
0.362613
0.592894
0.592894
0.592894
0.670651
0.670651
0.670651
0.851568
0.851568
0.851568
1.14491
1.14491
1.14491
0.74194
0.74194
0.74194
0.961775
0.961775
0.961775
0.986731
0.986731
0.986731
0.842706
0.842706
0.842706
0.989257
0.989257
0.989257
0.966481
0.966481
0.966481
0.98477
0.98477
0.98477
0.684295
0.684295
0.684295
1.02503
1.02503
1.02503
1.06058
1.06058
1.06058
1.09609
1.09609
1.09609
1.05743
1.05743
1.05743
0.863824
0.863824
0.863824
0.604876
0.604876
0.604876
0.697833
0.697833
0.697833
0.611043
0.611043
0.611043
0.781526
0.781526
0.781526
0.947046
0.947046
0.947046
0.965803
0.965803
0.965803
0.618119
0.618119
0.618119
0.84501
0.84501
0.84501
0.858521
0.858521
0.858521
0.883185
0.883185
0.883185
0.920951
0.920951
0.920951
1.01589
1.01589
1.01589
0.935291
0.935291
0.935291
0.989755
0.989755
0.989755
0.930325
0.930325
0.930325
0.646617
0.646617
0.646617
0.640684
0.640684
0.640684
0.677713
0.677713
0.677713
0.712322
0.712322
0.712322
1.02477
1.02477
1.02477
1.05044
1.05044
1.05044
1.0126
1.0126
1.0126
0.950301
0.950301
0.950301
0.701012
0.701012
0.701012
0.808949
0.808949
0.808949
0.853869
0.853869
0.853869
0.884405
0.884405
0.884405
0.906568
0.906568
0.906568
0.779647
0.779647
0.779647
0.482337
0.482337
0.482337
0.530786
0.530786
0.530786
0.525879
0.525879
0.525879
0.493988
0.493988
0.493988
0.500274
0.500274
0.500274
0.562992
0.562992
0.562992
0.749246
0.749246
0.749246
0.856731
0.856731
0.856731
0.96882
0.96882
0.96882
1.06166
1.06166
1.06166
1.10722
1.10722
1.10722
0.942701
0.942701
0.942701
1.13853
1.13853
1.13853
1.1022
1.1022
1.1022
1.15626
1.15626
1.15626
1.11854
1.11854
1.11854
0.967109
0.967109
0.967109
0.933306
0.933306
0.933306
1.12847
1.12847
1.12847
0.894853
0.894853
0.894853
0.814923
0.814923
0.814923
0.718415
0.718415
0.718415
0.768718
0.768718
0.768718
0.838611
0.838611
0.838611
1.14039
1.14039
1.14039
1.18653
1.18653
1.18653
1.16479
1.16479
1.16479
1.20775
1.20775
1.20775
1.0457
1.0457
1.0457
1.01748
1.01748
1.01748
1.01575
1.01575
1.01575
0.991192
0.991192
0.991192
1.06361
1.06361
1.06361
1.00734
1.00734
1.00734
1.28686
1.28686
1.28686
0.91005
0.91005
0.91005
0.902799
0.902799
0.902799
0.94916
0.94916
0.94916
0.957338
0.957338
0.957338
1.05331
1.05331
1.05331
1.02698
1.02698
1.02698
0.925624
0.925624
0.925624
0.998284
0.998284
0.998284
0.930815
0.930815
0.930815
0.928909
0.928909
0.928909
0.833758
0.833758
0.833758
1.04747
1.04747
1.04747
1.12088
1.12088
1.12088
1.13042
1.13042
1.13042
0.970548
0.970548
0.970548
1.00576
1.00576
1.00576
1.09301
1.09301
1.09301
1.06942
1.06942
1.06942
1.02149
1.02149
1.02149
0.903924
0.903924
0.903924
0.842195
0.842195
0.842195
0.924984
0.924984
0.924984
0.962715
0.962715
0.962715
0.998918
0.998918
0.998918
0.827779
0.827779
0.827779
1.09431
1.09431
1.09431
1.02516
1.02516
1.02516
1.02967
1.02967
1.02967
0.969311
0.969311
0.969311
0.926747
0.926747
0.926747
0.938829
0.938829
0.938829
1.06705
1.06705
1.06705
0.898755
0.898755
0.898755
0.972949
0.972949
0.972949
1.0783
1.0783
1.0783
0.906869
0.906869
0.906869
1.08705
1.08705
1.08705
0.913673
0.913673
0.913673
0.970464
0.970464
0.970464
0.994041
0.994041
0.994041
0.844868
0.844868
0.844868
0.953666
0.953666
0.953666
0.99353
0.99353
0.99353
1.00581
1.00581
1.00581
1.07879
1.07879
1.07879
1.21593
1.21593
1.21593
1.13109
1.13109
1.13109
0.958595
0.958595
0.958595
1.16806
1.16806
1.16806
0.979681
0.979681
0.979681
0.948706
0.948706
0.948706
1.1885
1.1885
1.1885
1.10648
1.10648
1.10648
1.07305
1.07305
1.07305
1.06007
1.06007
1.06007
1.05746
1.05746
1.05746
1.17194
1.17194
1.17194
0.888386
0.888386
0.888386
1.05289
1.05289
1.05289
0.894164
0.894164
0.894164
1.00311
1.00311
1.00311
0.733751
0.733751
0.733751
0.850493
0.850493
0.850493
0.959105
0.959105
0.959105
1.03877
1.03877
1.03877
1.06517
1.06517
1.06517
1.03617
1.03617
1.03617
1.13234
1.13234
1.13234
1.11113
1.11113
1.11113
1.06369
1.06369
1.06369
0.909519
0.909519
0.909519
1.03938
1.03938
1.03938
1.09174
1.09174
1.09174
1.15975
1.15975
1.15975
1.10234
1.10234
1.10234
1.13943
1.13943
1.13943
1.30043
1.30043
1.30043
1.13424
1.13424
1.13424
1.4639
1.4639
1.4639
0.987474
0.987474
0.987474
0.933217
0.933217
0.933217
0.854686
0.854686
0.854686
0.644129
0.644129
0.644129
0.461076
0.461076
0.461076
0.592691
0.592691
0.592691
0.548869
0.548869
0.548869
0.443002
0.443002
0.443002
0.617613
0.617613
0.617613
0.734073
0.734073
0.734073
0.609747
0.609747
0.609747
0.683603
0.683603
0.683603
0.832779
0.832779
0.832779
0.617911
0.617911
0.617911
0.506676
0.506676
0.506676
0.704004
0.704004
0.704004
0.582178
0.582178
0.582178
0.432679
0.432679
0.432679
0.633025
0.633025
0.633025
0.461838
0.461838
0.461838
0.412602
0.412602
0.412602
0.63964
0.63964
0.63964
0.49653
0.49653
0.49653
0.509547
0.509547
0.509547
0.832716
0.832716
0.832716
1.03027
1.03027
1.03027
0.9954
0.9954
0.9954
0.647202