<VTKFile type="UnstructuredGrid" version="1.0">
<UnstructuredGrid>
<Piece NumberOfPoints="30663" NumberOfCells="10221">
<Points>
<DataArray type="Float64" NumberOfComponents="3" format="ascii">
0.0106053 0.194991 0
0.0134765 0.199545 0
0.00809723 0.199836 0
-0.147647 0.134908 0
-0.141943 0.134018 0
-0.143989 0.138806 0
-0.195836 -0.00820101 0
-0.199927 -0.00540518 0
-0.199706 -0.0108371 0
0.125033 -0.0317229 0
0.127691 -0.0270955 0
0.122368 -0.0270975 0
0.00854916 0.00536601 0
0.00560728 0.0102837 0
0.00389974 0.0059049 0
-0.0626672 0.189928 0
-0.0585896 0.185981 0
-0.0578224 0.191459 0
-0.0774912 0.184378 0
-0.082584 0.182153 0
-0.0781726 0.179617 0
-0.0802374 0.175444 0
-0.0747495 0.175661 0
-0.0781726 0.179617 0
-0.0781726 0.179617 0
-0.082584 0.182153 0
-0.0802374 0.175444 0
-0.0781726 0.179617 0
-0.0747495 0.175661 0
-0.0730686 0.180663 0
-0.0728074 0.186277 0
-0.0774912 0.184378 0
-0.0730686 0.180663 0
-0.0730686 0.180663 0
-0.0774912 0.184378 0
-0.0781726 0.179617 0
0.0211693 0.19422 0
0.0241402 0.198538 0
0.0188277 0.199112 0
0.0264565 0.193685 0
0.0241402 0.198538 0
0.0211693 0.19422 0
0.0294073 0.197826 0
0.0241402 0.198538 0
0.0264565 0.193685 0
0.0294073 0.197826 0
0.0318464 0.193171 0
0.0346572 0.196974 0
0.0264565 0.193685 0
0.0318464 0.193171 0
0.0294073 0.197826 0
0.00787964 0.190356 0
0.0131321 0.190121 0
0.0106053 0.194991 0
0.00530613 0.19519 0
0.00809723 0.199836 0
0.00270096 0.199982 0
0.0106053 0.194991 0
0.00809723 0.199836 0
0.00530613 0.19519 0
0.00530613 0.19519 0
0.00787964 0.190356 0
0.0106053 0.194991 0
0.00262675 0.190476 0
0.00787964 0.190356 0
0.00530613 0.19519 0
0.0452604 0.106531 0
0.0399329 0.106527 0
0.0425939 0.101915 0
-0.109278 0.115873 0
-0.10663 0.120496 0
-0.111965 0.120509 0
-0.103945 0.115864 0
-0.10663 0.120496 0
-0.109278 0.115873 0
-0.140114 0.142717 0
-0.143989 0.138806 0
-0.13884 0.138199 0
-0.13884 0.138199 0
-0.143989 0.138806 0
-0.141943 0.134018 0
-0.19441 0.00587767 0
-0.192081 0.0102017 0
-0.197864 0.0100056 0
-0.199453 0.0147875 0
-0.199933 0.00516367 0
-0.197864 0.0100056 0
-0.197864 0.0100056 0
-0.199933 0.00516367 0
-0.19441 0.00587767 0
-0.199999 -0.000448924 0
-0.199927 -0.00540518 0
-0.194575 -0.0034515 0
-0.194575 -0.0034515 0
-0.199927 -0.00540518 0
-0.195836 -0.00820101 0
-0.196062 0.00147874 0
-0.191324 0.000956542 0
-0.19441 0.00587767 0
-0.196062 0.00147874 0
-0.199933 0.00516367 0
-0.199999 -0.000448924 0
-0.19441 0.00587767 0
-0.199933 0.00516367 0
-0.196062 0.00147874 0
-0.199999 -0.000448924 0
-0.194575 -0.0034515 0
-0.196062 0.00147874 0
-0.196062 0.00147874 0
-0.194575 -0.0034515 0
-0.191324 0.000956542 0
-0.103747 0.00520447 0
-0.106404 0.000595515 0
-0.101076 0.000590279 0
0.192881 0.0274799 0
0.19837 0.025479 0
0.197661 0.0304969 0
0.174315 0.098052 0
0.171476 0.0933911 0
0.176903 0.0933015 0
0.168866 0.0980214 0
0.166044 0.09335 0
0.171476 0.0933911 0
0.174315 0.098052 0
0.171598 0.102733 0
0.168866 0.0980214 0
0.168866 0.0980214 0
0.171476 0.0933911 0
0.174315 0.098052 0
0.194816 -0.0452398 0
0.195854 -0.0405108 0
0.189241 -0.0414828 0
0.154256 -0.036307 0
0.156867 -0.0409397 0
0.159571 -0.0362832 0
0.15163 -0.0316822 0
0.148946 -0.0363272 0
0.154256 -0.036307 0
-0.0664745 -0.00402935 0
-0.0717936 -0.00403017 0
-0.0691295 -0.00863599 0
-0.0213058 0.0374706 0
-0.0239608 0.0420596 0
-0.0266282 0.0374616 0
0.0632702 -0.184607 0
0.0622071 -0.19008 0
0.0670547 -0.188424 0
0.0670547 -0.188424 0
0.0683758 -0.183599 0
0.0632702 -0.184607 0
0.117144 -0.156238 0
0.121793 -0.15864 0
0.120176 -0.151964 0
0.141064 -0.141777 0
0.144776 -0.137986 0
0.139079 -0.137027 0
0.0721251 -0.186542 0
0.0683758 -0.183599 0
0.0670547 -0.188424 0
-0.0504182 -0.178919 0
-0.047753 -0.183379 0
-0.0450823 -0.178681 0
-0.0557685 -0.179613 0
-0.0527404 -0.183685 0
-0.0504182 -0.178919 0
-0.0504182 -0.178919 0
-0.0527404 -0.183685 0
-0.047753 -0.183379 0
-0.0395104 -0.178509 0
-0.0423557 -0.174185 0
-0.0450823 -0.178681 0
-0.0239847 -0.189102 0
-0.021821 -0.194056 0
-0.0187407 -0.189578 0
-0.117144 -0.156238 0
-0.113089 -0.1598 0
-0.111751 -0.155434 0
-0.117144 -0.156238 0
-0.121793 -0.15864 0
-0.117698 -0.161701 0
-0.117698 -0.161701 0
-0.113089 -0.1598 0
-0.117144 -0.156238 0
-0.113302 -0.164811 0
-0.113089 -0.1598 0
-0.117698 -0.161701 0
-0.120095 -0.142229 0
-0.122749 -0.137705 0
-0.125601 -0.142337 0
-0.125601 -0.142337 0
-0.122749 -0.137705 0
-0.128118 -0.13776 0
-0.125595 -0.155647 0
-0.124998 -0.15085 0
-0.129742 -0.152207 0
-0.1227 -0.146725 0
-0.117514 -0.14699 0
-0.120095 -0.142229 0
-0.120095 -0.142229 0
-0.125601 -0.142337 0
-0.1227 -0.146725 0
-0.124998 -0.15085 0
-0.125595 -0.155647 0
-0.120176 -0.151964 0
-0.120176 -0.151964 0
-0.1227 -0.146725 0
-0.124998 -0.15085 0
-0.117514 -0.14699 0
-0.1227 -0.146725 0
-0.120176 -0.151964 0
-0.120176 -0.151964 0
-0.121793 -0.15864 0
-0.117144 -0.156238 0
-0.120176 -0.151964 0
-0.125595 -0.155647 0
-0.121793 -0.15864 0
-0.0610646 -0.170248 0
-0.0583978 -0.17495 0
-0.0558211 -0.17011 0
-0.0558211 -0.17011 0
-0.0584674 -0.165506 0
-0.0610646 -0.170248 0
-0.0505076 -0.169903 0
-0.0531619 -0.165385 0
-0.0558211 -0.17011 0
-0.0558211 -0.17011 0
-0.0531619 -0.165385 0
-0.0584674 -0.165506 0
-0.108547 -0.161802 0
-0.113089 -0.1598 0
-0.113302 -0.164811 0
-0.108547 -0.161802 0
-0.111751 -0.155434 0
-0.113089 -0.1598 0
-0.0689037 0.183292 0
-0.0677068 0.188191 0
-0.0728074 0.186277 0
-0.0728074 0.186277 0
-0.0730686 0.180663 0
-0.0689037 0.183292 0
-0.0637384 0.184845 0
-0.0585896 0.185981 0
-0.0626672 0.189928 0
-0.0626672 0.189928 0
-0.0677068 0.188191 0
-0.0637384 0.184845 0
-0.0637384 0.184845 0
-0.0689037 0.183292 0
-0.0659087 0.179924 0
-0.0677068 0.188191 0
-0.0689037 0.183292 0
-0.0637384 0.184845 0
-0.0852052 0.175731 0
-0.082584 0.182153 0
-0.087201 0.179989 0
-0.0852052 0.175731 0
-0.0802374 0.175444 0
-0.082584 0.182153 0
-0.0719049 0.171312 0
-0.0747495 0.175661 0
-0.077323 0.171064 0
-0.0747495 0.175661 0
-0.0802374 0.175444 0
-0.077323 0.171064 0
-0.0694486 0.176244 0
-0.0730686 0.180663 0
-0.0747495 0.175661 0
-0.0694486 0.176244 0
-0.0747495 0.175661 0
-0.0719049 0.171312 0
-0.0659087 0.179924 0
-0.0689037 0.183292 0
-0.0694486 0.176244 0
-0.0694486 0.176244 0
-0.0689037 0.183292 0
-0.0730686 0.180663 0
-0.0694486 0.176244 0
-0.0636988 0.175764 0
-0.0659087 0.179924 0
-0.104001 0.14355 0
-0.106624 0.148151 0
-0.109392 0.14359 0
-0.101266 0.148155 0
-0.106624 0.148151 0
-0.104001 0.14355 0
-0.106973 0.167092 0
-0.103771 0.170972 0
-0.111877 0.165782 0
0.0158925 0.194665 0
0.0211693 0.19422 0
0.0188277 0.199112 0
0.0188277 0.199112 0
0.0134765 0.199545 0
0.0158925 0.194665 0
0.0158925 0.194665 0
0.0134765 0.199545 0
0.0106053 0.194991 0
0.0106053 0.194991 0
0.0131321 0.190121 0
0.0158925 0.194665 0
0.0183896 0.189785 0
0.0131321 0.190121 0
0.0157175 0.185269 0
0.0157175 0.185269 0
0.0209978 0.184965 0
0.0183896 0.189785 0
0.0183896 0.189785 0
0.0158925 0.194665 0
0.0131321 0.190121 0
0.0211693 0.19422 0
0.0158925 0.194665 0
0.0183896 0.189785 0
0.031836 0.175581 0
0.0291734 0.171047 0
0.0345658 0.171045 0
0.0477528 0.194216 0
0.0425454 0.195422 0
0.0446392 0.190051 0
0.0446392 0.190051 0
0.0498102 0.189464 0
0.0477528 0.194216 0
0.00262675 0.190476 0
0.00530613 0.19519 0
-2.62953e-11 0.195257 0
0.00270096 0.199982 0
-0.00270096 0.199982 0
-2.62953e-11 0.195257 0
-2.62953e-11 0.195257 0
0.00530613 0.19519 0
0.00270096 0.199982 0
0.0932686 0.171322 0
0.0957524 0.175589 0
0.0907889 0.176406 0
0.13884 0.138199 0
0.140114 0.142717 0
0.133963 0.139455 0
0.13884 0.138199 0
0.143989 0.138806 0
0.140114 0.142717 0
0.0719306 0.125039 0
0.0772671 0.125047 0
0.0746016 0.129664 0
0.0479214 0.101919 0
0.0452604 0.106531 0
0.0425939 0.101915 0
0.0506237 0.16204 0
0.053284 0.157412 0
0.055935 0.162068 0
0.0637384 0.184845 0
0.0626672 0.189928 0
0.0585896 0.185981 0
0.0585896 0.185981 0
0.0607959 0.180697 0
0.0637384 0.184845 0
0.0585896 0.185981 0
0.0626672 0.189928 0
0.0578224 0.191459 0
-0.143686 0.129441 0
-0.141943 0.134018 0
-0.147647 0.134908 0
-0.138557 0.129621 0
-0.141943 0.134018 0
-0.143686 0.129441 0
-0.140972 0.124847 0
-0.143686 0.129441 0
-0.146143 0.124808 0
-0.138557 0.129621 0
-0.143686 0.129441 0
-0.140972 0.124847 0
-0.140972 0.124847 0
-0.135782 0.125002 0
-0.138557 0.129621 0
-0.148478 0.129801 0
-0.143686 0.129441 0
-0.147647 0.134908 0
-0.146143 0.124808 0
-0.143686 0.129441 0
-0.148478 0.129801 0
-0.148874 0.120005 0
-0.146143 0.124808 0
-0.15105 0.12454 0
-0.146143 0.124808 0
-0.148478 0.129801 0
-0.15105 0.12454 0
-0.168866 0.0980214 0
-0.171598 0.102733 0
-0.174315 0.098052 0
-0.16614 0.102584 0
-0.171598 0.102733 0
-0.168866 0.0980214 0
-0.101293 0.120483 0
-0.10663 0.120496 0
-0.103945 0.115864 0
-0.103984 0.125115 0
-0.101293 0.120483 0
-0.0986384 0.125096 0
-0.10663 0.120496 0
-0.101293 0.120483 0
-0.103984 0.125115 0
-0.141382 0.10647 0
-0.143961 0.110994 0
-0.146828 0.1065 0
-0.125321 0.0973681 0
-0.128026 0.0927819 0
-0.122652 0.0927757 0
-0.1279 0.11117 0
-0.13323 0.111109 0
-0.130615 0.106534 0
-0.130698 0.0973642 0
-0.128026 0.0927819 0
-0.125321 0.0973681 0
-0.114606 0.115879 0
-0.109278 0.115873 0
-0.111965 0.120509 0
-0.125321 0.0973681 0
-0.122652 0.0927757 0
-0.119959 0.0973753 0
-0.119959 0.0973753 0
-0.122652 0.0927757 0
-0.117291 0.0927735 0
-0.119959 0.0973753 0
-0.117291 0.0927735 0
-0.114608 0.0973804 0
-0.114608 0.0973804 0
-0.117272 0.101989 0
-0.119959 0.0973753 0
-0.130541 0.125101 0
-0.135782 0.125002 0
-0.133139 0.120381 0
-0.125627 0.134508 0
-0.128081 0.129878 0
-0.12277 0.129841 0
-0.125627 0.134508 0
-0.122937 0.13893 0
-0.12857 0.139168 0
-0.131008 0.1346 0
-0.125627 0.134508 0
-0.12857 0.139168 0
-0.128081 0.129878 0
-0.125627 0.134508 0
-0.131008 0.1346 0
-0.14684 -0.114363 0
-0.141361 -0.114271 0
-0.144304 -0.109848 0
-0.154728 -0.119273 0
-0.157849 -0.115004 0
-0.160131 -0.119826 0
-0.146183 -0.12325 0
-0.149273 -0.118896 0
-0.151526 -0.123498 0
-0.149273 -0.118896 0
-0.154728 -0.119273 0
-0.151526 -0.123498 0
-0.169332 -0.097151 0
-0.17481 -0.0971676 0
[...]
<PointData Scalars="View Factor" >
<DataArray type="Float64" Name="View Factor" NumberOfComponents="1" format="ascii">
0.0357973
0.0357973
0.0357973
0.0357979
0.0357979
0.0357979
0.0357912
0.0357912
0.0357912
0.0373117
0.0373117
0.0373117
0.0384502
0.0384502
0.0384502
0.0357997
0.0357997
0.0357997
0.0357922
0.0357922
0.0357922
0.035928
0.035928
0.035928
0.0358518
0.0358518
0.0358518
0.0359117
0.0359117
0.0359117
0.0358007
0.0358007
0.0358007
0.0358354
0.0358354
0.0358354
0.0357965
0.0357965
0.0357965
0.0358348
0.0358348
0.0358348
0.0357956
0.0357956
0.0357956
0.0357931
0.0357931
0.0357931
0.0358313
0.0358313
0.0358313
0.0359557
0.0359557
0.0359557
0.0357975
0.0357975
0.0357975
0.0358374
0.0358374
0.0358374
0.0359168
0.0359168
0.0359168
0.0359565
0.0359565
0.0359565
0.0375589
0.0375589
0.0375589
0.0366633
0.0366633
0.0366633
0.036726
0.036726
0.036726
0.0357921
0.0357921
0.0357921
0.0358326
0.0358326
0.0358326
0.0358842
0.0358842
0.0358842
0.035774
0.035774
0.035774
0.0358199
0.0358199
0.0358199
0.0358031
0.0358031
0.0358031
0.0358368
0.0358368
0.0358368
0.0359099
0.0359099
0.0359099
0.0357907
0.0357907
0.0357907
0.0358372
0.0358372
0.0358372
0.0358363
0.0358363
0.0358363
0.035909
0.035909
0.035909
0.0377017
0.0377017
0.0377017
0.0358012
0.0358012
0.0358012
0.0357975
0.0357975
0.0357975
0.0359174
0.0359174
0.0359174
0.0357976
0.0357976
0.0357976
0.0358377
0.0358377
0.0358377
0.0358104
0.0358104
0.0358104
0.0366665
0.0366665
0.0366665
0.0367899
0.0367899
0.0367899
0.0381166
0.0381166
0.0381166
0.0383079
0.0383079
0.0383079
0.0357985
0.0357985
0.0357985
0.0358331
0.0358331
0.0358331
0.0358503
0.0358503
0.0358503
0.0357978
0.0357978
0.0357978
0.035792
0.035792
0.035792
0.0360923
0.0360923
0.0360923
0.0360485
0.0360485
0.0360485
0.0360369
0.0360369
0.0360369
0.0361986
0.0361986
0.0361986
0.0359556
0.0359556
0.0359556
0.0359051
0.0359051
0.0359051
0.0357974
0.0357974
0.0357974
0.0358333
0.0358333
0.0358333
0.0357933
0.0357933
0.0357933
0.0360859
0.0360859
0.0360859
0.0360699
0.0360699
0.0360699
0.0357921
0.0357921
0.0357921
0.0360441
0.0360441
0.0360441
0.0360307
0.0360307
0.0360307
0.0358449
0.0358449
0.0358449
0.0359181
0.0359181
0.0359181
0.035982
0.035982
0.035982
0.0358503
0.0358503
0.0358503
0.0358104
0.0358104
0.0358104
0.0362146
0.0362146
0.0362146
0.0362844
0.0362844
0.0362844
0.0363264
0.0363264
0.0363264
0.0363397
0.0363397
0.0363397
0.0358369
0.0358369
0.0358369
0.0359089
0.0359089
0.0359089
0.0357928
0.0357928
0.0357928
0.035836
0.035836
0.035836
0.0358376
0.0358376
0.0358376
0.0357952
0.0357952
0.0357952
0.035901
0.035901
0.035901
0.0358307
0.0358307
0.0358307
0.0357972
0.0357972
0.0357972
0.035857
0.035857
0.035857
0.0360536
0.0360536
0.0360536
0.0359954
0.0359954
0.0359954
0.0359652
0.0359652
0.0359652
0.0360398
0.0360398
0.0360398
0.0359515
0.0359515
0.0359515
0.0359245
0.0359245
0.0359245
0.0360245
0.0360245
0.0360245
0.0362462
0.0362462
0.0362462
0.0362545
0.0362545
0.0362545
0.0357715
0.0357715
0.0357715
0.0358362
0.0358362
0.0358362
0.035797
0.035797
0.035797
0.035837
0.035837
0.035837
0.0359159
0.0359159
0.0359159
0.0360312
0.0360312
0.0360312
0.0360671
0.0360671
0.0360671
0.0359541
0.0359541
0.0359541
0.0359143
0.0359143
0.0359143
0.0363536
0.0363536
0.0363536
0.0357978
0.0357978
0.0357978
0.0358325
0.0358325
0.0358325
0.0359172
0.0359172
0.0359172
0.0357975
0.0357975
0.0357975
0.0358376
0.0358376
0.0358376
0.0358127
0.0358127
0.0358127
0.035848
0.035848
0.035848
0.0357921
0.0357921
0.0357921
0.0369643
0.0369643
0.0369643
0.0375649
0.0375649
0.0375649
0.0364976
0.0364976
0.0364976
0.0358376
0.0358376
0.0358376
0.0359159
0.0359159
0.0359159
0.0357997
0.0357997
0.0357997
0.0358536
0.0358536
0.0358536
0.0359393
0.0359393
0.0359393
0.0359762
0.0359762
0.0359762
0.0359964
0.0359964
0.0359964
0.0360684
0.0360684
0.0360684
0.0358368
0.0358368
0.0358368
0.0359024
0.0359024
0.0359024
0.0359325
0.0359325
0.0359325
0.0358826
0.0358826
0.0358826
0.0357976
0.0357976
0.0357976
0.0358377
0.0358377
0.0358377
0.0367392
0.0367392
0.0367392
0.0367009
0.0367009
0.0367009
0.0366896
0.0366896
0.0366896
0.0362474
0.0362474
0.0362474
0.0367627
0.0367627
0.0367627
0.036467
0.036467
0.036467
0.0366981
0.0366981
0.0366981
0.0366485
0.0366485
0.0366485
0.0367877
0.0367877
0.0367877
0.0368506
0.0368506
0.0368506
0.0368736
0.0368736
0.0368736
0.0368337
0.0368337
0.0368337
0.0362104
0.0362104
0.0362104
0.036208
0.036208
0.036208
0.0360973
0.0360973
0.0360973
0.0360786
0.0360786
0.0360786
0.0361354
0.0361354
0.0361354
0.0361757
0.0361757
0.0361757
0.0358365
0.0358365
0.0358365
0.0359463
0.0359463
0.0359463
0.0359118
0.0359118
0.0359118
0.0357979
0.0357979
0.0357979
0.0357974
0.0357974
0.0357974
0.0360731
0.0360731
0.0360731
0.0359672
0.0359672
0.0359672
0.0359587
0.0359587
0.0359587
0.0360221
0.0360221
0.0360221
0.0357957
0.0357957
0.0357957
0.0357967
0.0357967
0.0357967
0.0358348
0.0358348
0.0358348
0.0361429
0.0361429
0.0361429
0.0361829
0.0361829
0.0361829
0.0359564
0.0359564
0.0359564
0.0362564
0.0362564
0.0362564
0.0361539
0.0361539
0.0361539
0.0360915
0.0360915
0.0360915
0.0371455
0.0371455
0.0371455
0.0371257
0.0371257
0.0371257
0.0371811
0.0371811
0.0371811
0.037197
0.037197
0.037197
0.0376624
0.0376624
0.0376624
0.0368848
0.0368848
0.0368848
0.0369443
0.0369443
0.0369443
0.0368799
0.0368799
0.0368799
0.0358375
0.0358375
0.0358375
0.0357923
0.0357923
0.0357923
0.0360349
0.0360349
0.0360349
0.0359569
0.0359569
0.0359569
0.0357912
0.0357912
0.0357912
0.0359099
0.0359099
0.0359099
0.0357907
0.0357907
0.0357907
0.0358372
0.0358372
0.0358372
0.0358065
0.0358065
0.0358065
0.0358434
0.0358434
0.0358434
0.0366315
0.0366315
0.0366315
0.0367425
0.0367425
0.0367425
0.0366808
0.0366808
0.0366808
0.0357983
0.0357983
0.0357983
0.0358513
0.0358513
0.0358513
0.0359219
0.0359219
0.0359219
0.0365682
0.0365682
0.0365682
0.0362304
0.0362304
0.0362304
0.0367255
0.0367255
0.0367255
0.0364414
0.0364414
0.0364414
0.0363733
0.0363733
0.0363733
0.035782
0.035782
0.035782
0.0357979
0.0357979
0.0357979
0.0359584
0.0359584
0.0359584
0.0358378
0.0358378
0.0358378
0.0359518
0.0359518
0.0359518
0.03602
0.03602
0.03602
0.0368614
0.0368614
0.0368614
0.0378792
0.0378792
0.0378792
0.0380642
0.0380642
0.0380642
0.0380921
0.0380921
0.0380921
0.0380107
0.0380107
0.0380107
0.038173
0.038173
0.038173
0.0381852
0.0381852
0.0381852
0.0374224
0.0374224
0.0374224
0.0376251
0.0376251
0.0376251
0.0375959
0.0375959
0.0375959
0.0376797
0.0376797
0.0376797
0.03764
0.03764
0.03764
0.0377377
0.0377377
0.0377377
0.0382182
0.0382182
0.0382182
0.0383172
0.0383172
0.0383172
0.0382299
0.0382299
0.0382299
0.0382973
0.0382973
0.0382973
0.0382537
0.0382537
0.0382537
0.0381183
0.0381183
0.0381183
0.0380924
0.0380924
0.0380924
0.0380921
0.0380921
0.0380921
0.038144
0.038144
0.038144
0.0383522
0.0383522
0.0383522
0.0384381
0.0384381
0.0384381
0.0384256
0.0384256
0.0384256
0.038434
0.038434
0.038434
0.0383928
0.0383928
0.0383928
0.038423
0.038423
0.038423
0.038437
0.038437
0.038437
0.0384312
0.0384312
0.0384312
0.0384445
0.0384445
0.0384445
0.0384504
0.0384504
0.0384504
0.0384465
0.0384465
0.0384465
0.0384532
0.0384532
0.0384532
0.0384532
0.0384532
0.0384532
0.0382492
0.0382492
0.0382492
0.0382715
0.0382715
0.0382715
0.0382513
0.0382513
0.0382513
0.0382271
0.0382271
0.0382271
0.038223
0.038223
0.038223
0.0382673
0.0382673
0.0382673
0.0383079
0.0383079
0.0383079
0.0383543
0.0383543
0.0383543
0.0383401
0.0383401
0.0383401
0.0381354
0.0381354
0.0381354
0.0379444
0.0379444
0.0379444
0.0382203
0.0382203
0.0382203
0.0380795
0.0380795
0.0380795
0.0380496
0.0380496
0.0380496
0.0358104
0.0358104
0.0358104
0.035832
0.035832
0.035832
0.0361189
0.0361189
0.0361189
0.0357974
0.0357974
0.0357974
0.0367952
0.0367952
0.0367952
0.0380353
0.0380353
0.0380353
0.038456
0.038456
0.038456
0.0384542
0.0384542
0.0384542
0.0384529
0.0384529
0.0384529
0.0384561
0.0384561
0.0384561
0.0384549
0.0384549
0.0384549
0.0384559
0.0384559
0.0384559
0.038454
0.038454
0.038454
0.038315
0.038315
0.038315
0.0383309
0.0383309
0.0383309
0.0376319
0.0376319
0.0376319
0.0375835
0.0375835
0.0375835
0.0377764
0.0377764
0.0377764
0.0377353
0.0377353
0.0377353
0.0378056
0.0378056
0.0378056
0.0377936
0.0377936
0.0377936
0.0379349
0.0379349
0.0379349
0.0379704
0.0379704
0.0379704
0.037955
0.037955
0.037955
0.0379804
0.0379804
0.0379804
0.0378449
0.0378449
0.0378449
0.0378722
0.0378722
0.0378722
0.0379196
0.0379196
0.0379196
0.0379095
0.0379095
0.0379095
0.0357975
0.0357975
0.0357975
0.0358367
0.0358367
0.0358367
0.0359526
0.0359526
0.0359526
0.0359153
0.0359153
0.0359153
0.035839
0.035839
0.035839
0.035798
0.035798
0.035798
0.0358379
0.0358379
0.0358379
0.0359175
0.0359175
0.0359175
0.0357985
0.0357985
0.0357985
0.0358002
0.0358002
0.0358002
0.0358423
0.0358423
0.0358423
0.0357995
0.0357995
0.0357995
0.0357985
0.0357985
0.0357985
0.0358405
0.0358405
0.0358405
0.0362415
0.0362415
0.0362415
0.0366889
0.0366889
0.0366889
0.0362152
0.0362152
0.0362152
0.036283
0.036283
0.036283
0.0362986
0.0362986
0.0362986
0.0361627
0.0361627
0.0361627
0.0359601
0.0359601
0.0359601
0.0358537
0.0358537
0.0358537
0.0357978
0.0357978
0.0357978
0.0361272
0.0361272
0.0361272
0.0361138
0.0361138
0.0361138
0.0361989
0.0361989
0.0361989
0.0362542
0.0362542
0.0362542
0.0368554
0.0368554
0.0368554
0.037321
0.037321
0.037321
0.0372769
0.0372769
0.0372769
0.0370853
0.0370853
0.0370853
0.0361126
0.0361126
0.0361126
0.0365736
0.0365736
0.0365736
0.0358333
0.0358333
0.0358333
0.0357987
0.0357987
0.0357987
0.0359065
0.0359065
0.0359065
0.035957
0.035957
0.035957
0.0359927
0.0359927
0.0359927
0.0360253
0.0360253
0.0360253
0.0359533
0.0359533
0.0359533
0.0359342
0.0359342
0.0359342
0.0364955
0.0364955
0.0364955
0.0364408
0.0364408
0.0364408
0.0367507
0.0367507
0.0367507
0.0362011
0.0362011
0.0362011
0.0361292
0.0361292
0.0361292
0.0361175
0.0361175
0.0361175
0.0362577
0.0362577
0.0362577
0.0362445
0.0362445
0.0362445
0.0361763
0.0361763
0.0361763
0.0358011
0.0358011
0.0358011
0.0360315
0.0360315
0.0360315
0.0359633
0.0359633
0.0359633
0.0358331
0.0358331
0.0358331
0.0359078
0.0359078
0.0359078
0.0357976
0.0357976
0.0357976
0.0359527
0.0359527
0.0359527
0.0360146
0.0360146
0.0360146
0.0360642
0.0360642
0.0360642
0.0359439
0.0359439
0.0359439
0.0359159
0.0359159
0.0359159
0.0357931
0.0357931
0.0357931
0.0360481
0.0360481
0.0360481
0.0357956
0.0357956
0.0357956
0.0358313
0.0358313
0.0358313
0.0359049
0.0359049
0.0359049
0.0358108
0.0358108
0.0358108
0.0361212
0.0361212
0.0361212
0.0361957
0.0361957
0.0361957
0.0361299
0.0361299
0.0361299
0.0362246
0.0362246
0.0362246
0.0359954
0.0359954
0.0359954
0.036179
0.036179
0.036179
0.0361677
0.0361677
0.0361677
0.0360538
0.0360538
0.0360538
0.0361214
0.0361214
0.0361214
0.0363195
0.0363195
0.0363195
0.0363252
0.0363252
0.0363252
0.035928
0.035928
0.035928
0.0358518
0.0358518
0.0358518
0.0357922
0.0357922
0.0357922
0.0361958
0.0361958
0.0361958
0.03613
0.03613
0.03613
0.0358152
0.0358152
0.0358152
0.0358127
0.0358127
0.0358127
0.0361747
0.0361747
0.0361747
0.0362548
0.0362548
0.0362548
0.0361417
0.0361417
0.0361417
0.0361815
0.0361815
0.0361815
0.0362872
0.0362872
0.0362872
0.0362468
0.0362468
0.0362468
0.0361336
0.0361336
0.0361336
0.036119
0.036119
0.036119
0.0361631
0.0361631
0.0361631
0.0358163
0.0358163
0.0358163
0.0357809
0.0357809
0.0357809
0.0359062
0.0359062
0.0359062
0.0379376
0.0379376
0.0379376
0.0361347
0.0361347
0.0361347
0.0366742
0.0366742
0.0366742
0.0365648
0.0365648
0.0365648
0.0365084
0.0365084
0.0365084
0.0361464
0.0361464
0.0361464
0.0360707
0.0360707
0.0360707
0.0360334
0.0360334
0.0360334
0.0380829
0.0380829
0.0380829
0.0381109
0.0381109
0.0381109
0.0375961
0.0375961
0.0375961
0.0376393
0.0376393
0.0376393
0.0376747
0.0376747
0.0376747
0.0376668
0.0376668
0.0376668
0.0380489
0.0380489
0.0380489
0.0380429
0.0380429
0.0380429
0.0380168
0.0380168
0.0380168
0.0380268
0.0380268
0.0380268
0.0358152
0.0358152
0.0358152
0.0358778
0.0358778
0.0358778
0.0357739
0.0357739
0.0357739
0.0359118
0.0359118
0.0359118
0.0357922
0.0357922
0.0357922
0.0358355
0.0358355
0.0358355
0.0365592
0.0365592
0.0365592
0.0360538
0.0360538
0.0360538
0.0362072
0.0362072
0.0362072
0.0362689
0.0362689
0.0362689
0.0373969
0.0373969
0.0373969
0.0364146
0.0364146
0.0364146
0.0363919
0.0363919
0.0363919
0.0364245
0.0364245
0.0364245
0.0368572
0.0368572
0.0368572
0.0369107
0.0369107
0.0369107
0.0360792
0.0360792
0.0360792
0.0360126
0.0360126
0.0360126
0.0360701
0.0360701
0.0360701
0.036649
0.036649
0.036649
0.0366587
0.0366587
0.0366587
0.037064
0.037064
0.037064
0.0369565
0.0369565
0.0369565
0.0369643
0.0369643
0.0369643
0.0369604
0.0369604
0.0369604
0.0370161
0.0370161
0.0370161
0.0370141
0.0370141
0.0370141
0.0367195
0.0367195
0.0367195
0.0368494
0.0368494
0.0368494
0.0369009
0.0369009
0.0369009
0.0368951
0.0368951
0.0368951
0.0368377
0.0368377
0.0368377
0.0366878
0.0366878
0.0366878
0.0367428
0.0367428
0.0367428
0.0368533
0.0368533
0.0368533
0.0369087
0.0369087
0.0369087
0.0369107
0.0369107
0.0369107
0.0368572
0.0368572
0.0368572
0.0368019
0.0368019
0.0368019
0.0367999
0.0367999
0.0367999
0.0375257
0.0375257
0.0375257
0.0374438
0.0374438
0.0374438
0.0374009
0.0374009
0.0374009
0.0365339
0.0365339
0.0365339
0.0365488
0.0365488
0.0365488
0.0364677
0.0364677
0.0364677
0.0369392
0.0369392
0.0369392
0.0369833
0.0369833
0.0369833
0.0368647
0.0368647
0.0368647
0.0368799
0.0368799
0.0368799
0.0366627
0.0366627
0.0366627
0.0366263
0.0366263
0.0366263
0.0366132
0.0366132
0.0366132
0.036596
0.036596
0.036596
0.0357952
0.0357952
0.0357952
0.0363966
0.0363966
0.0363966
0.0365305
0.0365305
0.0365305
0.035966
0.035966
0.035966
0.0357921
0.0357921
0.0357921
0.0374006
0.0374006
0.0374006
0.0362939
0.0362939
0.0362939
0.0363703
0.0363703
0.0363703
0.0366114
0.0366114
0.0366114
0.0364744
0.0364744
0.0364744
0.0363658
0.0363658
0.0363658
0.036404
0.036404
0.036404
0.0365742
0.0365742
0.0365742
0.0365059
0.0365059
0.0365059
0.0366035
0.0366035
0.0366035
0.0365647
0.0365647
0.0365647
0.0360872
0.0360872
0.0360872
0.0361199
0.0361199
0.0361199
0.036176
0.036176
0.036176
0.0361589
0.0361589
0.0361589
0.0357932
0.0357932
0.0357932
0.0358168
0.0358168
0.0358168
0.0357813
0.0357813
0.0357813
0.0370032
0.0370032
0.0370032
0.0370919
0.0370919
0.0370919
0.037063
0.037063
0.037063
0.0357975
0.0357975
0.0357975
0.0358375
0.0358375
0.0358375
0.0357975
0.0357975
0.0357975
0.0358377
0.0358377
0.0358377
0.035917
0.035917
0.035917
0.0359543
0.0359543
0.0359543
0.0361495
0.0361495
0.0361495
0.0357923
0.0357923
0.0357923
0.0358329
0.0358329
0.0358329
0.0357981
0.0357981
0.0357981
0.0359053
0.0359053
0.0359053
0.0360494
0.0360494
0.0360494
0.0361205
0.0361205
0.0361205
0.0362169
0.0362169
0.0362169
0.0361463
0.0361463
0.0361463
0.0359332
0.0359332
0.0359332
0.0360034
0.0360034
0.0360034
0.0367497
0.0367497
0.0367497
0.0361346
0.0361346
0.0361346
0.0361644
0.0361644
0.0361644
0.036262
0.036262
0.036262
0.0362779
0.0362779
0.0362779
0.0362353
0.0362353
0.0362353
0.0365868
0.0365868
0.0365868
0.0366495
0.0366495
0.0366495
0.0365755
0.0365755
0.0365755
0.0365494
0.0365494
0.0365494
0.0366138
0.0366138
0.0366138
0.0366269
0.0366269
0.0366269
0.0370921
0.0370921
0.0370921
0.036962
0.036962
0.036962
0.0369963
0.0369963
0.0369963
0.0370614
0.0370614
0.0370614
0.0369725
0.0369725
0.0369725
0.0370016
0.0370016
0.0370016
0.0369691
0.0369691
0.0369691
0.0367155
0.0367155
0.0367155
0.0360196
0.0360196
0.0360196
0.0361637
0.0361637
0.0361637
0.0357956
0.0357956
0.0357956
0.035946
0.035946
0.035946
0.0359051
0.0359051
0.0359051
0.0358314
0.0358314
0.0358314
0.0362878
0.0362878
0.0362878
0.0363589
0.0363589
0.0363589
0.0363985
0.0363985
0.0363985
0.0360314
0.0360314
0.0360314
0.0368145
0.0368145
0.0368145
0.036671
0.036671
0.036671
0.0366124
0.0366124
0.0366124
0.0366841
0.0366841
0.0366841
0.0368885
0.0368885
0.0368885
0.0363886
0.0363886
0.0363886
0.0364577
0.0364577
0.0364577
0.0364847
0.0364847
0.0364847
0.0364426
0.0364426
0.0364426
0.036534
0.036534
0.036534
0.0365068
0.0365068
0.0365068
0.0364683
0.0364683
0.0364683
0.0365752
0.0365752
0.0365752
0.0364978
0.0364978
0.0364978
0.0365657
0.0365657
0.0365657
0.0366045
0.0366045
0.0366045
0.0366794
0.0366794
0.0366794
0.0366961
0.0366961
0.0366961
0.0367065
0.0367065
0.0367065
0.0367252
0.0367252
0.0367252
0.0367877
0.0367877
0.0367877
0.0367502
0.0367502
0.0367502
0.0370112
0.0370112
0.0370112
0.0365113
0.0365113
0.0365113
0.0366424
0.0366424
0.0366424
0.0365564
0.0365564
0.0365564
0.0366219
0.0366219
0.0366219
0.0364444
0.0364444
0.0364444
0.0364225
0.0364225
0.0364225
0.0364167
0.0364167
0.0364167
0.03628
0.03628
0.03628
0.0363292
0.0363292
0.0363292
0.0363974
0.0363974
0.0363974
0.0365841
0.0365841
0.0365841
0.0365345
0.0365345
0.0365345
0.036452
0.036452
0.036452
0.0364683
0.0364683
0.0364683
0.0359118
0.0359118
0.0359118
0.0358355
0.0358355
0.0358355
0.0359441
0.0359441
0.0359441
0.0359662
0.0359662
0.0359662
0.0359161
0.0359161
0.0359161
0.0360439
0.0360439
0.0360439
0.0360644
0.0360644
0.0360644
0.0360147
0.0360147
0.0360147
0.0359436
0.0359436
0.0359436
0.0360026
0.0360026
0.0360026
0.0358557
0.0358557
0.0358557
0.035848
0.035848
0.035848
0.0358134
0.0358134
0.0358134
0.0359576
0.0359576
0.0359576
0.0359065
0.0359065
0.0359065
0.0360334
0.0360334
0.0360334
0.0360489
0.0360489
0.0360489
0.0359218
0.0359218
0.0359218
0.0359885
0.0359885
0.0359885
0.0361345
0.0361345
0.0361345
0.03602
0.03602
0.03602
0.0360614
0.0360614
0.0360614
0.0357973
0.0357973
0.0357973
0.0357967
0.0357967
0.0357967
0.0357957
0.0357957
0.0357957
0.035835
0.035835
0.035835
0.0359148
0.0359148
0.0359148
0.0360278
0.0360278
0.0360278
0.0359518
0.0359518
0.0359518
0.0359185
0.0359185
0.0359185
0.0358383
0.0358383
0.0358383
0.0358326
0.0358326
0.0358326
0.0357988
0.0357988
0.0357988
0.0359081
0.0359081
0.0359081
0.0359039
0.0359039
0.0359039
0.0359559
0.0359559
0.0359559
0.0362756
0.0362756
0.0362756
0.036328
0.036328
0.036328
0.0363982
0.0363982
0.0363982
0.0363346
0.0363346
0.0363346
0.036068
0.036068
0.036068
0.036032
0.036032
0.036032
0.0357975
0.0357975
0.0357975
0.0359164
0.0359164
0.0359164
0.0359547
0.0359547
0.0359547
0.0359146
0.0359146
0.0359146
0.0358364
0.0358364
0.0358364
0.0357972
0.0357972
0.0357972
0.0358372
0.0358372
0.0358372
0.0360718
0.0360718
0.0360718
0.0360345
0.0360345
0.0360345
0.0361478
0.0361478
0.0361478
0.0358383
0.0358383
0.0358383
0.0357979
0.0357979
0.0357979
0.0362959
0.0362959
0.0362959
0.0361759
0.0361759
0.0361759
0.0371015
0.0371015
0.0371015
0.0371571
0.0371571
0.0371571
0.0371077
0.0371077
0.0371077
0.0370285
0.0370285
0.0370285
0.0370858
0.0370858
0.0370858
0.0371255
0.0371255
0.0371255
0.0367926
0.0367926
0.0367926
0.0365739
0.0365739
0.0365739
0.0365505
0.0365505
0.0365505
0.037102
0.037102
0.037102
0.0369616
0.0369616
0.0369616
0.0369719
0.0369719
0.0369719
0.0369974
0.0369974
0.0369974
0.037432
0.037432
0.037432
0.0371601
0.0371601
0.0371601
0.0371617
0.0371617
0.0371617
0.0372301
0.0372301
0.0372301
0.0372518
0.0372518
0.0372518
0.0372176
0.0372176
0.0372176
0.0369105
0.0369105
0.0369105
0.0370463
0.0370463
0.0370463
0.0369868
0.0369868
0.0369868
0.0369494
0.0369494
0.0369494
0.0370681
0.0370681
0.0370681
0.0367753
0.0367753
0.0367753
0.0367241
0.0367241
0.0367241
0.0366885
0.0366885
0.0366885
0.0367269
0.0367269
0.0367269
0.036037
0.036037
0.036037
0.0359576
0.0359576
0.0359576
0.0359582
0.0359582
0.0359582
0.0359182
0.0359182
0.0359182
0.0374904
0.0374904
0.0374904
0.0374848
0.0374848
0.0374848
0.0374117
0.0374117
0.0374117
0.037453
0.037453
0.037453
0.0374494
0.0374494
0.0374494
0.0374031
0.0374031
0.0374031
0.0374102
0.0374102
0.0374102
0.0374975
0.0374975
0.0374975
0.037535
0.037535
0.037535
0.0375386
0.0375386
0.0375386
0.0375813
0.0375813
0.0375813
0.0373154
0.0373154
0.0373154
0.0373368
0.0373368
0.0373368
0.0371595
0.0371595
0.0371595
0.0357928
0.0357928
0.0357928
0.0357956
0.0357956
0.0357956
0.0358309
0.0358309
0.0358309
0.0376601
0.0376601
0.0376601
0.0370471
0.0370471
0.0370471
0.0369874
0.0369874
0.0369874
0.0368391
0.0368391
0.0368391
0.0369818
0.0369818
0.0369818
0.036958
0.036958
0.036958
0.0369882
0.0369882