<VTKFile type="UnstructuredGrid" version="1.0">
<UnstructuredGrid>
<Piece NumberOfPoints="11046" NumberOfCells="3682">
<Points>
<DataArray type="Float64" NumberOfComponents="3" format="ascii">
0.0241134 2.58707e-14 0
0.00915147 0.0213992 0
0 0 0
1 0.389717 0
1 0.433026 0
0.991449 0.411371 0
0.9766 0.649773 0
1 0.649769 0
0.991418 0.67149 0
0.991429 0.628066 0
1 0.649769 0
0.9766 0.649773 0
0.763069 0.194866 0
0.737952 0.194864 0
0.750506 0.173217 0
1 0.346412 0
1 0.389717 0
0.99145 0.368065 0
0.976612 0.389718 0
1 0.389717 0
0.991449 0.411371 0
0.965225 0.368065 0
0.99145 0.368065 0
0.976612 0.389718 0
0.976612 0.389718 0
0.99145 0.368065 0
1 0.389717 0
0.437483 0.977997 0
0.46249 0.977997 0
0.449988 1 0
0.399975 1 0
0.374969 1 0
0.387467 0.977993 0
0.31225 0.0216541 0
0.299721 2.80562e-14 0
0.324784 2.81008e-14 0
0.186757 0.02167 0
0.17422 2.76964e-14 0
0.199344 2.77897e-14 0
0.161453 0.151578 0
0.14885 0.17322 0
0.136238 0.151575 0
1 0.780345 0
1 0.8241 0
0.991394 0.802204 0
0.991394 0.802204 0
1 0.8241 0
0.976608 0.824084 0
1 0.649769 0
0.991429 0.628066 0
1 0.606369 0
1 0.519664 0
1 0.563004 0
0.991442 0.541333 0
0.991442 0.541333 0
0.97661 0.519665 0
1 0.519664 0
0.965218 0.541334 0
0.97661 0.519665 0
0.991442 0.541333 0
0.965218 0.541334 0
0.991442 0.541333 0
0.976608 0.563006 0
0.976608 0.563006 0
0.991442 0.541333 0
1 0.563004 0
0.965206 0.628069 0
0.991429 0.628066 0
0.9766 0.649773 0
0.637645 0.0216523 0
0.612606 0.0216518 0
0.625123 2.81683e-14 0
0.625126 0.0433037 0
0.612606 0.0216518 0
0.637645 0.0216523 0
0.750483 0.0866213 0
0.737937 0.108269 0
0.725382 0.0866162 0
0.725382 0.0866162 0
0.737937 0.108269 0
0.712843 0.108265 0
0.637657 0.194859 0
0.625136 0.216509 0
0.612615 0.194858 0
0.991523 0.108126 0
1 0.0863938 0
1 0.129827 0
0.97665 0.129821 0
0.991523 0.108126 0
1 0.129827 0
0.965288 0.108165 0
0.991523 0.108126 0
0.97665 0.129821 0
0.97665 0.129821 0
1 0.129827 0
0.991482 0.151503 0
0.991482 0.151503 0
0.965262 0.151504 0
0.97665 0.129821 0
0.976628 0.173168 0
0.965262 0.151504 0
0.991482 0.151503 0
0.901596 0.173203 0
0.889008 0.151566 0
0.914299 0.151548 0
0.914299 0.151548 0
0.889008 0.151566 0
0.901592 0.129918 0
0.888983 0.10829 0
0.914281 0.10827 0
0.901592 0.129918 0
0.991482 0.151503 0
1 0.129827 0
1 0.173175 0
1 0.173175 0
0.976628 0.173168 0
0.991482 0.151503 0
0.939644 0.238148 0
0.914281 0.238151 0
0.926794 0.216496 0
0.91429 0.194847 0
0.939655 0.194837 0
0.926794 0.216496 0
0.926794 0.216496 0
0.901589 0.216502 0
0.91429 0.194847 0
0.914281 0.238151 0
0.901589 0.216502 0
0.926794 0.216496 0
0.863758 0.324762 0
0.888995 0.324761 0
0.876356 0.346413 0
1 0.346412 0
0.99145 0.368065 0
0.976613 0.346412 0
0.976613 0.346412 0
0.99145 0.368065 0
0.965225 0.368065 0
0.926787 0.259803 0
0.93964 0.281455 0
0.914276 0.281456 0
0.926787 0.259803 0
0.914281 0.238151 0
0.939644 0.238148 0
0.412475 0.977995 0
0.399975 1 0
0.387467 0.977993 0
0.437483 0.977997 0
0.449988 1 0
0.424982 1 0
0.424982 1 0
0.412475 0.977995 0
0.437483 0.977997 0
0.399975 1 0
0.412475 0.977995 0
0.424982 1 0
0.412425 0.0216515 0
0.399911 2.81922e-14 0
0.424939 2.82103e-14 0
0.424937 0.0433025 0
0.399909 0.043303 0
0.412425 0.0216515 0
0.825954 0.38972 0
0.838549 0.411374 0
0.813367 0.411374 0
0.800785 0.38972 0
0.825954 0.38972 0
0.813367 0.411374 0
0.788208 0.411375 0
0.800785 0.38972 0
0.813367 0.411374 0
0.750511 0.433031 0
0.763072 0.411375 0
0.775637 0.43303 0
0.763072 0.411375 0
0.788208 0.411375 0
0.775637 0.43303 0
0.512503 0.977998 0
0.487497 0.977998 0
0.5 0.956 0
0.512503 0.977998 0
0.525006 1 0
0.5 1 0
0.5 1 0
0.487497 0.977998 0
0.512503 0.977998 0
0.562517 0.977997 0
0.575018 1 0
0.550012 1 0
0.587579 0.628133 0
0.562552 0.628134 0
0.575065 0.606425 0
0.123963 2.74581e-14 0
0.111286 0.0216969 0
0.098853 2.7291e-14 0
0.0860831 0.0217056 0
0.111286 0.0216969 0
0.0986201 0.0433713 0
0.0986201 0.0433713 0
0.073434 0.0433688 0
0.0860831 0.0217056 0
0.0737889 2.70489e-14 0
0.098853 2.7291e-14 0
0.0860831 0.0217056 0
0.0860831 0.0217056 0
0.098853 2.7291e-14 0
0.111286 0.0216969 0
0.0858265 0.0650115 0
0.073434 0.0433688 0
0.0986201 0.0433713 0
0.186757 0.02167 0
0.1993 0.0433286 0
0.174155 0.0433381 0
0.0986201 0.0433713 0
0.111286 0.0216969 0
0.123812 0.0433618 0
0.148851 0.25981 0
0.161446 0.238162 0
0.174043 0.259812 0
0.387383 0.368068 0
0.374863 0.389721 0
0.36234 0.368068 0
0.374863 0.303112 0
0.349816 0.303112 0
0.362341 0.281461 0
0.362341 0.281461 0
0.387383 0.281461 0
0.374863 0.303112 0
0.362341 0.281461 0
0.349816 0.303112 0
0.337288 0.281461 0
0.374864 0.25981 0
0.387383 0.281461 0
0.362341 0.281461 0
0.412418 0.238159 0
0.437446 0.238158 0
0.424933 0.259809 0
0.399902 0.216508 0
0.374864 0.216509 0
0.387385 0.194858 0
0.28718 0.0216556 0
0.274647 2.80034e-14 0
0.299721 2.80562e-14 0
0.28718 0.0216556 0
0.299721 2.80562e-14 0
0.31225 0.0216541 0
0.249559 2.79419e-14 0
0.274647 2.80034e-14 0
0.262096 0.0216576 0
0.262096 0.0216576 0
0.236998 0.0216606 0
0.249559 2.79419e-14 0
0.274647 2.80034e-14 0
0.28718 0.0216556 0
0.262096 0.0216576 0
0.262096 0.0216576 0
0.28718 0.0216556 0
0.274632 0.0433114 0
0.374868 0.129907 0
0.387386 0.151557 0
0.362345 0.151558 0
0.374868 0.129907 0
0.362347 0.108257 0
0.387388 0.108256 0
0.32477 0.0866095 0
0.349825 0.0866075 0
0.337297 0.108259 0
0.337297 0.108259 0
0.349825 0.0866075 0
0.362347 0.108257 0
0.362345 0.151558 0
0.387386 0.151557 0
0.374866 0.173208 0
0.174046 0.173222 0
0.161453 0.151578 0
0.186639 0.151577 0
0.14885 0.17322 0
0.161453 0.151578 0
0.174046 0.173222 0
0.965155 0.845905 0
0.951832 0.823989 0
0.976608 0.824084 0
0.939435 0.845724 0
0.951832 0.823989 0
0.965155 0.845905 0
0.926369 0.867525 0
0.938931 0.88936 0
0.913552 0.889388 0
0.787513 0.977925 0
0.799925 1 0
0.774983 1 0
1 0.563004 0
1 0.606369 0
0.991437 0.584684 0
0.965213 0.584686 0
0.976608 0.563006 0
0.991437 0.584684 0
0.991437 0.584684 0
0.976608 0.563006 0
1 0.563004 0
0.951868 0.649776 0
0.965206 0.628069 0
0.9766 0.649773 0
0.976605 0.606372 0
1 0.606369 0
0.991429 0.628066 0
0.991429 0.628066 0
0.965206 0.628069 0
0.976605 0.606372 0
0.965213 0.584686 0
0.991437 0.584684 0
0.976605 0.606372 0
0.976605 0.606372 0
0.991437 0.584684 0
1 0.606369 0
0.939619 0.628072 0
0.951868 0.649776 0
0.926761 0.64978 0
0.965206 0.628069 0
0.951868 0.649776 0
0.939619 0.628072 0
0.901523 0.736742 0
0.91421 0.758517 0
0.888915 0.758519 0
0.625123 2.81683e-14 0
0.612606 0.0216518 0
0.600089 2.81922e-14 0
0.650165 2.81381e-14 0
0.675216 2.81008e-14 0
0.662692 0.0216531 0
0.650165 2.81381e-14 0
0.637645 0.0216523 0
0.625123 2.81683e-14 0
0.662692 0.0216531 0
0.637645 0.0216523 0
0.650165 2.81381e-14 0
0.65017 0.0433048 0
0.637645 0.0216523 0
0.662692 0.0216531 0
0.625126 0.0433037 0
0.637645 0.0216523 0
0.65017 0.0433048 0
0.737904 0.0216576 0
0.725353 2.80034e-14 0
0.750441 2.79419e-14 0
0.737904 0.0216576 0
0.750462 0.0433155 0
0.725368 0.0433114 0
0.725368 0.0433114 0
0.750462 0.0433155 0
0.737922 0.0649669 0
0.750483 0.0866213 0
0.725382 0.0866162 0
0.737922 0.0649669 0
0.737922 0.0649669 0
0.763028 0.0649726 0
0.750483 0.0866213 0
0.750462 0.0433155 0
0.763028 0.0649726 0
0.737922 0.0649669 0
0.68775 0.0216541 0
0.675216 2.81008e-14 0
0.700279 2.80562e-14 0
0.662692 0.0216531 0
0.675216 2.81008e-14 0
0.68775 0.0216541 0
0.700279 2.80562e-14 0
0.725353 2.80034e-14 0
0.71282 0.0216556 0
0.71282 0.0216556 0
0.68775 0.0216541 0
0.700279 2.80562e-14 0
0.700289 0.0433084 0
0.68775 0.0216541 0
0.71282 0.0216556 0
0.725368 0.0433114 0
0.700289 0.0433084 0
0.71282 0.0216556 0
0.71282 0.0216556 0
0.737904 0.0216576 0
0.725368 0.0433114 0
0.725353 2.80034e-14 0
0.737904 0.0216576 0
0.71282 0.0216556 0
0.712833 0.0649626 0
0.700289 0.0433084 0
0.725368 0.0433114 0
0.725368 0.0433114 0
0.737922 0.0649669 0
0.712833 0.0649626 0
0.712833 0.0649626 0
0.737922 0.0649669 0
0.725382 0.0866162 0
0.687778 0.324764 0
0.662713 0.324764 0
0.675244 0.303112 0
0.675244 0.303112 0
0.650184 0.303112 0
0.662712 0.281461 0
0.662713 0.324764 0
0.650184 0.303112 0
0.675244 0.303112 0
0.66271 0.19486 0
0.687775 0.194861 0
0.675242 0.21651 0
0.48749 0.28146 0
0.51251 0.28146 0
0.5 0.303111 0
0.5 0.303111 0
0.51251 0.28146 0
0.52502 0.303111 0
0.788207 0.454688 0
0.813366 0.454687 0
0.800783 0.476347 0
0.813364 0.498009 0
0.788206 0.49801 0
0.800783 0.476347 0
0.965225 0.368065 0
0.976612 0.389718 0
0.951885 0.389718 0
0.951879 0.563008 0
0.976608 0.563006 0
0.965213 0.584686 0
0.951879 0.563008 0
0.926774 0.56301 0
0.93963 0.541335 0
0.951879 0.563008 0
0.93963 0.541335 0
0.965218 0.541334 0
0.965218 0.541334 0
0.976608 0.563006 0
0.951879 0.563008 0
0.85113 0.606389 0
0.863745 0.584698 0
0.876341 0.606385 0
0.914299 0.151548 0
0.939672 0.151524 0
0.926807 0.173188 0
0.926807 0.173188 0
0.939655 0.194837 0
0.91429 0.194847 0
0.926807 0.173188 0
0.901596 0.173203 0
0.914299 0.151548 0
0.91429 0.194847 0
0.901596 0.173203 0
0.926807 0.173188 0
0.926813 0.129891 0
0.939672 0.151524 0
0.914299 0.151548 0
0.914299 0.151548 0
0.901592 0.129918 0
0.926813 0.129891 0
0.926813 0.129891 0
0.901592 0.129918 0
0.914281 0.10827 0
0.926813 0.129891 0
0.914281 0.10827 0
0.939672 0.108229 0
0.96524 0.194832 0
0.939655 0.194837 0
0.95191 0.173174 0
0.95191 0.173174 0
0.976628 0.173168 0
0.96524 0.194832 0
0.939655 0.194837 0
0.926807 0.173188 0
0.95191 0.173174 0
0.95191 0.173174 0
0.926807 0.173188 0
0.939672 0.151524 0
0.965262 0.151504 0
0.976628 0.173168 0
0.95191 0.173174 0
0.95191 0.173174 0
0.939672 0.151524 0
0.965262 0.151504 0
0.889008 0.151566 0
0.901596 0.173203 0
0.876368 0.173214 0
0.775632 0.173219 0
0.763063 0.15157 0
0.7882 0.151574 0
0.775632 0.173219 0
0.763069 0.194866 0
0.750506 0.173217 0
0.750506 0.173217 0
0.763063 0.15157 0
0.775632 0.173219 0
0.96524 0.194832 0
0.976628 0.173168 0
0.991462 0.194834 0
0.976628 0.173168 0
1 0.173175 0
0.991462 0.194834 0
0.991462 0.194834 0
1 0.173175 0
1 0.216494 0
0.96524 0.194832 0
0.991462 0.194834 0
0.976618 0.216491 0
0.976618 0.216491 0
0.991462 0.194834 0
1 0.216494 0
[...]
<PointData Scalars="View Factor" >
<DataArray type="Float64" Name="View Factor" NumberOfComponents="1" format="ascii">
0.141154
0.141154
0.141154
0.179435
0.179435
0.179435
0.177755
0.177755
0.177755
0.178582
0.178582
0.178582
0.199782
0.199782
0.199782
0.177612
0.177612
0.177612
0.180444
0.180444
0.180444
0.18175
0.18175
0.18175
0.17983
0.17983
0.17983
0.182821
0.182821
0.182821
0.179399
0.179399
0.179399
0.175093
0.175093
0.175093
0.16374
0.16374
0.16374
0.182963
0.182963
0.182963
0.164153
0.164153
0.164153
0.16395
0.16395
0.16395
0.177804
0.177804
0.177804
0.180619
0.180619
0.180619
0.18237
0.18237
0.18237
0.184585
0.184585
0.184585
0.184348
0.184348
0.184348
0.181904
0.181904
0.181904
0.181216
0.181216
0.181216
0.180213
0.180213
0.180213
0.183011
0.183011
0.183011
0.18655
0.18655
0.18655
0.188959
0.188959
0.188959
0.21265
0.21265
0.21265
0.153678
0.153678
0.153678
0.15678
0.15678
0.15678
0.157752
0.157752
0.157752
0.15857
0.15857
0.15857
0.161385
0.161385
0.161385
0.163126
0.163126
0.163126
0.175483
0.175483
0.175483
0.173577
0.173577
0.173577
0.169605
0.169605
0.169605
0.158986
0.158986
0.158986
0.161998
0.161998
0.161998
0.179888
0.179888
0.179888
0.176722
0.176722
0.176722
0.17964
0.17964
0.17964
0.181248
0.181248
0.181248
0.197536
0.197536
0.197536
0.178368
0.178368
0.178368
0.181007
0.181007
0.181007
0.184126
0.184126
0.184126
0.181371
0.181371
0.181371
0.181356
0.181356
0.181356
0.181089
0.181089
0.181089
0.182209
0.182209
0.182209
0.180363
0.180363
0.180363
0.180338
0.180338
0.180338
0.185992
0.185992
0.185992
0.20998
0.20998
0.20998
0.211569
0.211569
0.211569
0.213776
0.213776
0.213776
0.219916
0.219916
0.219916
0.217953
0.217953
0.217953
0.186215
0.186215
0.186215
0.181818
0.181818
0.181818
0.183313
0.183313
0.183313
0.181089
0.181089
0.181089
0.234002
0.234002
0.234002
0.154811
0.154811
0.154811
0.15664
0.15664
0.15664
0.156062
0.156062
0.156062
0.151555
0.151555
0.151555
0.154351
0.154351
0.154351
0.158266
0.158266
0.158266
0.168741
0.168741
0.168741
0.159454
0.159454
0.159454
0.196341
0.196341
0.196341
0.231101
0.231101
0.231101
0.223507
0.223507
0.223507
0.223576
0.223576
0.223576
0.221842
0.221842
0.221842
0.221978
0.221978
0.221978
0.220982
0.220982
0.220982
0.21439
0.21439
0.21439
0.173224
0.173224
0.173224
0.175551
0.175551
0.175551
0.171145
0.171145
0.171145
0.171354
0.171354
0.171354
0.173556
0.173556
0.173556
0.176224
0.176224
0.176224
0.20375
0.20375
0.20375
0.198891
0.198891
0.198891
0.192795
0.192795
0.192795
0.194893
0.194893
0.194893
0.206083
0.206083
0.206083
0.186435
0.186435
0.186435
0.185717
0.185717
0.185717
0.166541
0.166541
0.166541
0.167741
0.167741
0.167741
0.166224
0.166224
0.166224
0.166482
0.166482
0.166482
0.179567
0.179567
0.179567
0.183628
0.183628
0.183628
0.181549
0.181549
0.181549
0.183349
0.183349
0.183349
0.180005
0.180005
0.180005
0.181939
0.181939
0.181939
0.183146
0.183146
0.183146
0.180599
0.180599
0.180599
0.188069
0.188069
0.188069
0.186083
0.186083
0.186083
0.185996
0.185996
0.185996
0.179373
0.179373
0.179373
0.176745
0.176745
0.176745
0.178174
0.178174
0.178174
0.178886
0.178886
0.178886
0.181658
0.181658
0.181658
0.183743
0.183743
0.183743
0.171145
0.171145
0.171145
0.176438
0.176438
0.176438
0.17903
0.17903
0.17903
0.18409
0.18409
0.18409
0.181629
0.181629
0.181629
0.17912
0.17912
0.17912
0.175093
0.175093
0.175093
0.17733
0.17733
0.17733
0.173224
0.173224
0.173224
0.175551
0.175551
0.175551
0.178257
0.178257
0.178257
0.178598
0.178598
0.178598
0.176224
0.176224
0.176224
0.173556
0.173556
0.173556
0.181231
0.181231
0.181231
0.181449
0.181449
0.181449
0.184
0.184
0.184
0.222657
0.222657
0.222657
0.221614
0.221614
0.221614
0.223047
0.223047
0.223047
0.209106
0.209106
0.209106
0.227566
0.227566
0.227566
0.228305
0.228305
0.228305
0.21563
0.21563
0.21563
0.21596
0.21596
0.21596
0.184638
0.184638
0.184638
0.186415
0.186415
0.186415
0.191613
0.191613
0.191613
0.189321
0.189321
0.189321
0.186782
0.186782
0.186782
0.203722
0.203722
0.203722
0.171505
0.171505
0.171505
0.175043
0.175043
0.175043
0.174438
0.174438
0.174438
0.176233
0.176233
0.176233
0.169652
0.169652
0.169652
0.170678
0.170678
0.170678
0.16872
0.16872
0.16872
0.165792
0.165792
0.165792
0.170817
0.170817
0.170817
0.167896
0.167896
0.167896
0.172119
0.172119
0.172119
0.170375
0.170375
0.170375
0.166206
0.166206
0.166206
0.167385
0.167385
0.167385
0.178363
0.178363
0.178363
0.19277
0.19277
0.19277
0.197346
0.197346
0.197346
0.195278
0.195278
0.195278
0.166448
0.166448
0.166448
0.163633
0.163633
0.163633
0.163836
0.163836
0.163836
0.168024
0.168024
0.168024
0.166735
0.166735
0.166735
0.168174
0.168174
0.168174
0.168197
0.168197
0.168197
0.170994
0.170994
0.170994
0.176953
0.176953
0.176953
0.179907
0.179907
0.179907
0.181264
0.181264
0.181264
0.176987
0.176987
0.176987
0.175427
0.175427
0.175427
0.175516
0.175516
0.175516
0.172613
0.172613
0.172613
0.172445
0.172445
0.172445
0.171102
0.171102
0.171102
0.189316
0.189316
0.189316
0.193749
0.193749
0.193749
0.196439
0.196439
0.196439
0.185393
0.185393
0.185393
0.188228
0.188228
0.188228
0.175105
0.175105
0.175105
0.177523
0.177523
0.177523
0.179291
0.179291
0.179291
0.179623
0.179623
0.179623
0.182253
0.182253
0.182253
0.183127
0.183127
0.183127
0.195913
0.195913
0.195913
0.181575
0.181575
0.181575
0.18319
0.18319
0.18319
0.181818
0.181818
0.181818
0.1712
0.1712
0.1712
0.181551
0.181551
0.181551
0.181065
0.181065
0.181065
0.184997
0.184997
0.184997
0.182161
0.182161
0.182161
0.182774
0.182774
0.182774
0.184989
0.184989
0.184989
0.179373
0.179373
0.179373
0.184125
0.184125
0.184125
0.181307
0.181307
0.181307
0.181065
0.181065
0.181065
0.186747
0.186747
0.186747
0.185622
0.185622
0.185622
0.182774
0.182774
0.182774
0.222229
0.222229
0.222229
0.225773
0.225773
0.225773
0.197588
0.197588
0.197588
0.187741
0.187741
0.187741
0.198539
0.198539
0.198539
0.196802
0.196802
0.196802
0.220322
0.220322
0.220322
0.176745
0.176745
0.176745
0.182258
0.182258
0.182258
0.17733
0.17733
0.17733
0.180071
0.180071
0.180071
0.178174
0.178174
0.178174
0.180213
0.180213
0.180213
0.183011
0.183011
0.183011
0.183743
0.183743
0.183743
0.181658
0.181658
0.181658
0.178886
0.178886
0.178886
0.226199
0.226199
0.226199
0.223937
0.223937
0.223937
0.223384
0.223384
0.223384
0.224508
0.224508
0.224508
0.221258
0.221258
0.221258
0.200147
0.200147
0.200147
0.208863
0.208863
0.208863
0.220852
0.220852
0.220852
0.221559
0.221559
0.221559
0.22383
0.22383
0.22383
0.219292
0.219292
0.219292
0.213953
0.213953
0.213953
0.214051
0.214051
0.214051
0.215974
0.215974
0.215974
0.217635
0.217635
0.217635
0.217773
0.217773
0.217773
0.215316
0.215316
0.215316
0.216942
0.216942
0.216942
0.216474
0.216474
0.216474
0.214388
0.214388
0.214388
0.214473
0.214473
0.214473
0.215238
0.215238
0.215238
0.215784
0.215784
0.215784
0.217329
0.217329
0.217329
0.222223
0.222223
0.222223
0.220394
0.220394
0.220394
0.2189
0.2189
0.2189
0.232647
0.232647
0.232647
0.237928
0.237928
0.237928
0.210726
0.210726
0.210726
0.208981
0.208981
0.208981
0.206126
0.206126
0.206126
0.206685
0.206685
0.206685
0.208721
0.208721
0.208721
0.211032
0.211032
0.211032
0.211757
0.211757
0.211757
0.210154
0.210154
0.210154
0.207141
0.207141
0.207141
0.207849
0.207849
0.207849
0.207863
0.207863
0.207863
0.191758
0.191758
0.191758
0.192443
0.192443
0.192443
0.193491
0.193491
0.193491
0.212489
0.212489
0.212489
0.211856
0.211856
0.211856
0.213039
0.213039
0.213039
0.209546
0.209546
0.209546
0.208415
0.208415
0.208415
0.186118
0.186118
0.186118
0.19788
0.19788
0.19788
0.18762
0.18762
0.18762
0.195202
0.195202
0.195202
0.182821
0.182821
0.182821
0.181575
0.181575
0.181575
0.18319
0.18319
0.18319
0.18609
0.18609
0.18609
0.185714
0.185714
0.185714
0.187367
0.187367
0.187367
0.180363
0.180363
0.180363
0.182209
0.182209
0.182209
0.175131
0.175131
0.175131
0.231539
0.231539
0.231539
0.232935
0.232935
0.232935
0.238889
0.238889
0.238889
0.238982
0.238982
0.238982
0.234916
0.234916
0.234916
0.236416
0.236416
0.236416
0.232935
0.232935
0.232935
0.233014
0.233014
0.233014
0.231943
0.231943
0.231943
0.231784
0.231784
0.231784
0.235133
0.235133
0.235133
0.159268
0.159268
0.159268
0.141635
0.141635
0.141635
0.184219
0.184219
0.184219
0.18762
0.18762
0.18762
0.18609
0.18609
0.18609
0.171439
0.171439
0.171439
0.168935
0.168935
0.168935
0.184345
0.184345
0.184345
0.184234
0.184234
0.184234
0.183366
0.183366
0.183366
0.181354
0.181354
0.181354
0.168865
0.168865
0.168865
0.17658
0.17658
0.17658
0.173999
0.173999
0.173999
0.148184
0.148184
0.148184
0.150994
0.150994
0.150994
0.153212
0.153212
0.153212
0.152545
0.152545
0.152545
0.17384
0.17384
0.17384
0.17119
0.17119
0.17119
0.161725
0.161725
0.161725
0.166155
0.166155
0.166155
0.163299
0.163299
0.163299
0.161115
0.161115
0.161115
0.170912
0.170912
0.170912
0.160917
0.160917
0.160917
0.163597
0.163597
0.163597
0.166071
0.166071
0.166071
0.157578
0.157578
0.157578
0.159933
0.159933
0.159933
0.157936
0.157936
0.157936
0.160665
0.160665
0.160665
0.16831
0.16831
0.16831
0.180954
0.180954
0.180954
0.17816
0.17816
0.17816
0.206714
0.206714
0.206714
0.208268
0.208268
0.208268
0.210776
0.210776
0.210776
0.208628
0.208628
0.208628
0.206003
0.206003
0.206003
0.233752
0.233752
0.233752
0.232739
0.232739
0.232739
0.230102
0.230102
0.230102
0.228707
0.228707
0.228707
0.226122
0.226122
0.226122
0.224502
0.224502
0.224502
0.227937
0.227937
0.227937
0.226557
0.226557
0.226557
0.225096
0.225096
0.225096
0.225005
0.225005
0.225005
0.227846
0.227846
0.227846
0.226375
0.226375
0.226375
0.218466
0.218466
0.218466
0.220259
0.220259
0.220259
0.220326
0.220326
0.220326
0.218598
0.218598
0.218598
0.221761
0.221761
0.221761
0.222953
0.222953
0.222953
0.224724
0.224724
0.224724
0.225296
0.225296
0.225296
0.22409
0.22409
0.22409
0.222326
0.222326
0.222326
0.227338
0.227338
0.227338
0.226923
0.226923
0.226923
0.221887
0.221887
0.221887
0.223394
0.223394
0.223394
0.221388
0.221388
0.221388
0.223144
0.223144
0.223144
0.216638
0.216638
0.216638
0.218507
0.218507
0.218507
0.220144
0.220144
0.220144
0.216393
0.216393
0.216393
0.218013
0.218013
0.218013
0.219896
0.219896
0.219896
0.219088
0.219088
0.219088
0.217611
0.217611
0.217611
0.178257
0.178257
0.178257
0.180541
0.180541
0.180541
0.18321
0.18321
0.18321
0.178598
0.178598
0.178598
0.173979
0.173979
0.173979
0.176616
0.176616
0.176616
0.174068
0.174068
0.174068
0.176438
0.176438
0.176438
0.18655
0.18655
0.18655
0.183223
0.183223
0.183223
0.181589
0.181589
0.181589
0.179044
0.179044
0.179044
0.202203
0.202203
0.202203
0.197389
0.197389
0.197389
0.201825
0.201825
0.201825
0.199405
0.199405
0.199405
0.187659
0.187659
0.187659
0.192227
0.192227
0.192227
0.190363
0.190363
0.190363
0.148705
0.148705
0.148705
0.153881
0.153881
0.153881
0.164245
0.164245
0.164245
0.16135
0.16135
0.16135
0.157829
0.157829
0.157829
0.141626
0.141626
0.141626
0.141635
0.141635
0.141635
0.150662
0.150662
0.150662
0.148005
0.148005
0.148005
0.151445
0.151445
0.151445
0.145432
0.145432
0.145432
0.144924
0.144924
0.144924
0.170748
0.170748
0.170748
0.176619
0.176619
0.176619
0.159268
0.159268
0.159268
0.162304
0.162304
0.162304
0.163443
0.163443
0.163443
0.157048
0.157048
0.157048
0.158849
0.158849
0.158849
0.161694
0.161694
0.161694
0.169144
0.169144
0.169144
0.17491
0.17491
0.17491
0.167123
0.167123
0.167123
0.16524
0.16524
0.16524
0.165959
0.165959
0.165959
0.163008
0.163008
0.163008
0.175886
0.175886
0.175886
0.173987
0.173987
0.173987
0.17109
0.17109
0.17109
0.174832
0.174832
0.174832
0.170053
0.170053
0.170053
0.171895
0.171895
0.171895
0.18855
0.18855
0.18855
0.166489
0.166489
0.166489
0.158129
0.158129
0.158129
0.160861
0.160861
0.160861
0.179914
0.179914
0.179914
0.182042
0.182042
0.182042
0.170031
0.170031
0.170031
0.1729
0.1729
0.1729
0.175492
0.175492
0.175492
0.170454
0.170454
0.170454
0.173202
0.173202
0.173202
0.178218
0.178218
0.178218
0.180458
0.180458
0.180458
0.168487
0.168487
0.168487
0.175875
0.175875
0.175875
0.17535
0.17535
0.17535
0.184479
0.184479
0.184479
0.185742
0.185742
0.185742
0.166777
0.166777
0.166777
0.168233
0.168233
0.168233
0.180243
0.180243
0.180243
0.180013
0.180013
0.180013
0.181613
0.181613
0.181613
0.197456
0.197456
0.197456
0.199394
0.199394
0.199394
0.201888
0.201888
0.201888
0.19079
0.19079
0.19079
0.192668
0.192668
0.192668
0.188577
0.188577
0.188577
0.193363
0.193363
0.193363
0.191235
0.191235
0.191235
0.184604
0.184604
0.184604
0.180243
0.180243
0.180243
0.181718
0.181718
0.181718
0.180338
0.180338
0.180338
0.182161
0.182161
0.182161
0.184997
0.184997
0.184997
0.181307
0.181307
0.181307
0.186471
0.186471
0.186471
0.188491
0.188491
0.188491
0.191167
0.191167
0.191167
0.187087
0.187087
0.187087
0.180541
0.180541
0.180541
0.180071
0.180071
0.180071
0.184959
0.184959
0.184959
0.182258
0.182258
0.182258
0.191179
0.191179
0.191179
0.188868
0.188868
0.188868
0.186369
0.186369
0.186369
0.19316
0.19316
0.19316
0.190953
0.190953
0.190953
0.197389
0.197389
0.197389
0.191345
0.191345
0.191345
0.181589
0.181589
0.181589
0.187605
0.187605
0.187605
0.224723
0.224723
0.224723
0.212893
0.212893
0.212893
0.211019
0.211019
0.211019
0.213075
0.213075
0.213075
0.21111
0.21111
0.21111
0.227937
0.227937
0.227937
0.227846
0.227846
0.227846
0.197761
0.197761
0.197761
0.195629
0.195629
0.195629
0.193617
0.193617
0.193617
0.195859
0.195859
0.195859
0.198225
0.198225
0.198225
0.227983
0.227983
0.227983
0.227405
0.227405
0.227405
0.228817
0.228817
0.228817
0.231473
0.231473
0.231473
0.229072
0.229072
0.229072
0.230397
0.230397
0.230397
0.222386
0.222386
0.222386
0.225933
0.225933
0.225933
0.225041
0.225041
0.225041
0.223267
0.223267
0.223267
0.227405
0.227405
0.227405
0.228305
0.228305
0.228305
0.227983
0.227983
0.227983
0.182324
0.182324
0.182324
0.180552
0.180552
0.180552
0.194131
0.194131
0.194131
0.194384
0.194384
0.194384
0.182999
0.182999
0.182999
0.185273
0.185273
0.185273
0.207665
0.207665
0.207665
0.210578
0.210578
0.210578
0.211486
0.211486
0.211486
0.212779
0.212779
0.212779
0.213238
0.213238
0.213238
0.208847
0.208847
0.208847
0.209296
0.209296
0.209296
0.211794
0.211794
0.211794
0.214024
0.214024
0.214024
0.213861
0.213861
0.213861
0.198722
0.198722
0.198722
0.19613
0.19613
0.19613
0.195336
0.195336
0.195336
0.164821
0.164821
0.164821
0.166723
0.166723
0.166723
0.161838
0.161838
0.161838
0.160818
0.160818
0.160818
0.162665
0.162665
0.162665
0.165586
0.165586
0.165586
0.150978
0.150978
0.150978
0.167547
0.167547
0.167547
0.184023
0.184023
0.184023
0.187619
0.187619
0.187619
0.186799
0.186799
0.186799
0.18862
0.18862
0.18862
0.180208
0.180208
0.180208
0.179124
0.179124
0.179124
0.180852
0.180852
0.180852
0.183712
0.183712
0.183712
0.184823
0.184823
0.184823
0.183048
0.183048
0.183048
0.201763
0.201763
0.201763
0.201272
0.201272
0.201272
0.203124
0.203124
0.203124
0.189708
0.189708
0.189708
0.192305
0.192305
0.192305
0.176093
0.176093
0.176093
0.173268
0.173268
0.173268
0.172484
0.172484
0.172484
0.174497
0.174497
0.174497
0.171354
0.171354
0.171354
0.173979
0.173979
0.173979
0.16374
0.16374
0.16374
0.166364
0.166364
0.166364
0.179044
0.179044
0.179044
0.178878
0.178878
0.178878
0.193971
0.193971
0.193971
0.192494
0.192494
0.192494
0.204039
0.204039
0.204039
0.201531
0.201531
0.201531
0.196651
0.196651
0.196651
0.199983
0.199983
0.199983
0.184112
0.184112
0.184112
0.185365
0.185365
0.185365
0.188173
0.188173
0.188173
0.189741
0.189741
0.189741
0.18846
0.18846
0.18846
0.185638
0.185638
0.185638
0.185655
0.185655
0.185655
0.184257
0.184257
0.184257
0.189399
0.189399
0.189399
0.191502
0.191502
0.191502
0.192155
0.192155
0.192155
0.193222
0.193222
0.193222
0.178319
0.178319
0.178319
0.17561
0.17561
0.17561
0.171946
0.171946
0.171946
0.174545
0.174545
0.174545
0.176156
0.176156
0.176156
0.176757
0.176757
0.176757
0.175443
0.175443
0.175443
0.172206
0.172206
0.172206
0.174967
0.174967
0.174967
0.170934
0.170934
0.170934
0.172385
0.172385
0.172385
0.186938
0.186938
0.186938
0.188737
0.188737
0.188737
0.1877
0.1877
0.1877
0.184092
0.184092
0.184092
0.18784
0.18784
0.18784
0.1894
0.1894
0.1894
0.186635
0.186635
0.186635
0.185867
0.185867
0.185867
0.181794
0.181794
0.181794
0.183143
0.183143
0.183143
0.184959
0.184959
0.184959
0.190231
0.190231
0.190231
0.188062
0.188062
0.188062
0.185441
0.185441
0.185441
0.181551
0.181551
0.181551
0.185622
0.185622
0.185622
0.191201
0.191201
0.191201
0.186747
0.186747
0.186747
0.189532
0.189532
0.189532
0.21439
0.21439
0.21439
0.188491
0.188491
0.188491
0.186471
0.186471
0.186471
0.187087
0.187087
0.187087
0.189738
0.189738
0.189738
0.188762
0.188762
0.188762
0.190552
0.190552
0.190552
0.193265
0.193265
0.193265
0.194171
0.194171
0.194171
0.189648
0.189648
0.189648
0.192344
0.192344
0.192344
0.201094
0.201094
0.201094
0.210145
0.210145
0.210145
0.207909
0.207909
0.207909
0.21625
0.21625
0.21625
0.224758
0.224758
0.224758
0.223792
0.223792
0.223792
0.223879
0.223879
0.223879
0.221961
0.221961
0.221961
0.221093
0.221093
0.221093
0.222044
0.222044
0.222044
0.219128
0.219128
0.219128
0.218113
0.218113
0.218113
0.22181
0.22181
0.22181
0.221016
0.221016
0.221016
0.220623
0.220623
0.220623
0.219049
0.219049
0.219049
0.218656
0.218656
0.218656
0.217876
0.217876
0.217876
0.212262
0.212262
0.212262
0.21082
0.21082
0.21082
0.204876
0.204876
0.204876
0.213013
0.213013
0.213013
0.228724
0.228724
0.228724
0.227327
0.227327
0.227327
0.225952
0.225952
0.225952
0.219571
0.219571
0.219571
0.222236
0.222236
0.222236
0.224056
0.224056
0.224056
0.222323
0.222323
0.222323
0.221415
0.221415
0.221415
0.214539
0.214539
0.214539
0.212915
0.212915
0.212915
0.218998
0.218998
0.218998
0.217054
0.217054
0.217054
0.216613
0.216613
0.216613
0.218106
0.218106
0.218106
0.220057
0.220057
0.220057
0.220508
0.220508
0.220508
0.213916
0.213916
0.213916
0.213347
0.213347
0.213347
0.2157
0.2157
0.2157
0.215413
0.215413
0.215413
0.219221
0.219221
0.219221
0.217579
0.217579
0.217579
0.217745
0.217745
0.217745
0.219557
0.219557
0.219557
0.238392
0.238392
0.238392
0.238764
0.238764
0.238764
0.237912
0.237912
0.237912
0.23833
0.23833
0.23833
0.238144
0.238144
0.238144
0.23331
0.23331
0.23331
0.234068
0.234068
0.234068
0.235088
0.235088
0.235088
0.233568
0.233568
0.233568
0.232132
0.232132
0.232132
0.231216
0.231216
0.231216
0.229885
0.229885
0.229885
0.229466
0.229466
0.229466
0.234068
0.234068
0.234068
0.23331
0.23331
0.23331
0.229792
0.229792
0.229792
0.230375
0.230375
0.230375
0.231709
0.231709
0.231709
0.235532
0.235532
0.235532
0.236297
0.236297
0.236297
0.233676
0.233676
0.233676
0.232589
0.232589
0.232589
0.234678
0.234678
0.234678
0.232647
0.232647
0.232647
0.232739
0.232739
0.232739
0.233752
0.233752
0.233752
0.233568
0.233568
0.233568
0.234586
0.234586
0.234586
0.237496
0.237496
0.237496
0.238547
0.238547
0.238547
0.237928
0.237928
0.237928
0.238454
0.238454
0.238454
0.238036
0.238036
0.238036
0.238114
0.238114
0.238114
0.237589
0.237589
0.237589
0.236988
0.236988
0.236988
0.237434
0.237434
0.237434
0.236911
0.236911
0.236911
0.238889
0.238889
0.238889
0.238361
0.238361
0.238361
0.23878
0.23878
0.23878
0.239044
0.239044
0.239044
0.205446
0.205446
0.205446
0.182494
0.182494
0.182494
0.179537
0.179537
0.179537
0.178582
0.178582
0.178582
0.215239
0.215239
0.215239
0.21833
0.21833
0.21833
0.216252
0.216252
0.216252
0.215429
0.215429
0.215429
0.214689
0.214689
0.214689
0.217509
0.217509
0.217509
0.209573
0.209573
0.209573
0.211612
0.211612
0.211612
0.212917
0.212917
0.212917
0.211887
0.211887
0.211887
0.209297
0.209297
0.209297
0.208289
0.208289
0.208289
0.200811
0.200811
0.200811
0.190109
0.190109
0.190109
0.188818
0.188818
0.188818
0.183366
0.183366
0.183366
0.181354
0.181354
0.181354
0.178564
0.178564
0.178564
0.177757
0.177757
0.177757
0.178766
0.178766
0.178766
0.179714
0.179714
0.179714
0.182532
0.182532
0.182532
0.188061
0.188061
0.188061
0.226333
0.226333
0.226333
0.212852
0.212852
0.212852
0.215047
0.215047
0.215047
0.211518
0.211518
0.211518
0.212355
0.212355
0.212355
0.216314
0.216314
0.216314
0.217846
0.217846
0.217846
0.19414
0.19414
0.19414
0.190203
0.190203
0.190203
0.191377
0.191377
0.191377
0.186862
0.186862
0.186862
0.18509
0.18509
0.18509
0.189689
0.189689
0.189689
0.176778
0.176778
0.176778